v testName timers
+ 1.00504 2 3 tcp 40 ------- 0 0.0 3.0 0 0
- 1.00504 2 3 tcp 40 ------- 0 0.0 3.0 0 0
r 1.10544 2 3 tcp 40 ------- 0 0.0 3.0 0 0
+ 1.30584 2 0 ack 40 ------- 0 3.0 0.0 0 1
- 1.30584 2 0 ack 40 ------- 0 3.0 0.0 0 1
r 1.31088 2 0 ack 40 ------- 0 3.0 0.0 0 1
+ 1.31688 2 3 tcp 1000 ------- 0 0.0 3.0 1 2
- 1.31688 2 3 tcp 1000 ------- 0 0.0 3.0 1 2
+ 1.31788 2 3 tcp 1000 ------- 0 0.0 3.0 2 3
- 1.32688 2 3 tcp 1000 ------- 0 0.0 3.0 2 3
+ 1.32754 2 3 tcp 40 ------- 1 1.0 3.1 0 4
- 1.33688 2 3 tcp 40 ------- 1 1.0 3.1 0 4
r 1.42688 2 3 tcp 1000 ------- 0 0.0 3.0 1 2
r 1.43688 2 3 tcp 1000 ------- 0 0.0 3.0 2 3
r 1.43728 2 3 tcp 40 ------- 1 1.0 3.1 0 4
+ 1.53728 2 0 ack 40 ------- 0 3.0 0.0 2 5
- 1.53728 2 0 ack 40 ------- 0 3.0 0.0 2 5
r 1.54232 2 0 ack 40 ------- 0 3.0 0.0 2 5
+ 1.54832 2 3 tcp 1000 ------- 0 0.0 3.0 3 7
- 1.54832 2 3 tcp 1000 ------- 0 0.0 3.0 3 7
+ 1.54932 2 3 tcp 1000 ------- 0 0.0 3.0 4 8
+ 1.55032 2 3 tcp 1000 ------- 0 0.0 3.0 5 9
d 1.55032 2 3 tcp 1000 ------- 0 0.0 3.0 5 9
- 1.55832 2 3 tcp 1000 ------- 0 0.0 3.0 4 8
+ 1.63768 2 1 ack 40 ------- 1 3.1 1.0 0 6
- 1.63768 2 1 ack 40 ------- 1 3.1 1.0 0 6
r 1.64272 2 1 ack 40 ------- 1 3.1 1.0 0 6
+ 1.64872 2 3 tcp 1000 ------- 1 1.0 3.1 1 10
- 1.64872 2 3 tcp 1000 ------- 1 1.0 3.1 1 10
+ 1.64972 2 3 tcp 1000 ------- 1 1.0 3.1 2 11
r 1.65832 2 3 tcp 1000 ------- 0 0.0 3.0 3 7
- 1.65872 2 3 tcp 1000 ------- 1 1.0 3.1 2 11
r 1.66832 2 3 tcp 1000 ------- 0 0.0 3.0 4 8
r 1.75872 2 3 tcp 1000 ------- 1 1.0 3.1 1 10
r 1.76872 2 3 tcp 1000 ------- 1 1.0 3.1 2 11
+ 1.76872 2 0 ack 40 ------- 0 3.0 0.0 4 12
- 1.76872 2 0 ack 40 ------- 0 3.0 0.0 4 12
r 1.77376 2 0 ack 40 ------- 0 3.0 0.0 4 12
+ 1.77976 2 3 tcp 1000 ------- 0 0.0 3.0 6 14
- 1.77976 2 3 tcp 1000 ------- 0 0.0 3.0 6 14
+ 1.78076 2 3 tcp 1000 ------- 0 0.0 3.0 7 15
+ 1.78176 2 3 tcp 1000 ------- 0 0.0 3.0 8 16
d 1.78176 2 3 tcp 1000 ------- 0 0.0 3.0 8 16
- 1.78976 2 3 tcp 1000 ------- 0 0.0 3.0 7 15
+ 1.86912 2 1 ack 40 ------- 1 3.1 1.0 2 13
- 1.86912 2 1 ack 40 ------- 1 3.1 1.0 2 13
r 1.87416 2 1 ack 40 ------- 1 3.1 1.0 2 13
+ 1.88016 2 3 tcp 1000 ------- 1 1.0 3.1 3 17
- 1.88016 2 3 tcp 1000 ------- 1 1.0 3.1 3 17
+ 1.88116 2 3 tcp 1000 ------- 1 1.0 3.1 4 18
+ 1.88216 2 3 tcp 1000 ------- 1 1.0 3.1 5 19
d 1.88216 2 3 tcp 1000 ------- 1 1.0 3.1 5 19
r 1.88976 2 3 tcp 1000 ------- 0 0.0 3.0 6 14
- 1.89016 2 3 tcp 1000 ------- 1 1.0 3.1 4 18
r 1.89976 2 3 tcp 1000 ------- 0 0.0 3.0 7 15
r 1.99016 2 3 tcp 1000 ------- 1 1.0 3.1 3 17
+ 1.99016 2 0 ack 40 ------- 0 3.0 0.0 4 20
- 1.99016 2 0 ack 40 ------- 0 3.0 0.0 4 20
r 1.9952 2 0 ack 40 ------- 0 3.0 0.0 4 20
r 2.00016 2 3 tcp 1000 ------- 1 1.0 3.1 4 18
+ 2.00016 2 0 ack 40 ------- 0 3.0 0.0 4 21
- 2.00016 2 0 ack 40 ------- 0 3.0 0.0 4 21
r 2.0052 2 0 ack 40 ------- 0 3.0 0.0 4 21
+ 2.10056 2 1 ack 40 ------- 1 3.1 1.0 4 22
- 2.10056 2 1 ack 40 ------- 1 3.1 1.0 4 22
r 2.1056 2 1 ack 40 ------- 1 3.1 1.0 4 22
+ 2.1116 2 3 tcp 1000 ------- 1 1.0 3.1 6 23
- 2.1116 2 3 tcp 1000 ------- 1 1.0 3.1 6 23
+ 2.1126 2 3 tcp 1000 ------- 1 1.0 3.1 7 24
+ 2.1136 2 3 tcp 1000 ------- 1 1.0 3.1 8 25
d 2.1136 2 3 tcp 1000 ------- 1 1.0 3.1 8 25
- 2.1216 2 3 tcp 1000 ------- 1 1.0 3.1 7 24
r 2.2216 2 3 tcp 1000 ------- 1 1.0 3.1 6 23
r 2.2316 2 3 tcp 1000 ------- 1 1.0 3.1 7 24
+ 2.322 2 1 ack 40 ------- 1 3.1 1.0 4 26
- 2.322 2 1 ack 40 ------- 1 3.1 1.0 4 26
r 2.32704 2 1 ack 40 ------- 1 3.1 1.0 4 26
+ 2.332 2 1 ack 40 ------- 1 3.1 1.0 4 27
- 2.332 2 1 ack 40 ------- 1 3.1 1.0 4 27
r 2.33704 2 1 ack 40 ------- 1 3.1 1.0 4 27
+ 2.77976 2 3 tcp 1000 ------- 0 0.0 3.0 5 28
- 2.77976 2 3 tcp 1000 ------- 0 0.0 3.0 5 28
r 2.88976 2 3 tcp 1000 ------- 0 0.0 3.0 5 28
+ 2.99016 2 0 ack 40 ------- 0 3.0 0.0 7 29
- 2.99016 2 0 ack 40 ------- 0 3.0 0.0 7 29
r 2.9952 2 0 ack 40 ------- 0 3.0 0.0 7 29
+ 3.0012 2 3 tcp 1000 ---A--- 0 0.0 3.0 8 30
- 3.0012 2 3 tcp 1000 ---A--- 0 0.0 3.0 8 30
+ 3.0022 2 3 tcp 1000 ------- 0 0.0 3.0 9 31
- 3.0112 2 3 tcp 1000 ------- 0 0.0 3.0 9 31
r 3.1112 2 3 tcp 1000 ---A--- 0 0.0 3.0 8 30
+ 3.1116 2 3 tcp 1000 ------- 1 1.0 3.1 5 32
- 3.1116 2 3 tcp 1000 ------- 1 1.0 3.1 5 32
r 3.1212 2 3 tcp 1000 ------- 0 0.0 3.0 9 31
+ 3.2216 2 0 ack 40 ------- 0 3.0 0.0 9 33
- 3.2216 2 0 ack 40 ------- 0 3.0 0.0 9 33
r 3.2216 2 3 tcp 1000 ------- 1 1.0 3.1 5 32
r 3.22664 2 0 ack 40 ------- 0 3.0 0.0 9 33
+ 3.23264 2 3 tcp 1000 ------- 0 0.0 3.0 10 35
- 3.23264 2 3 tcp 1000 ------- 0 0.0 3.0 10 35
+ 3.23364 2 3 tcp 1000 ------- 0 0.0 3.0 11 36
- 3.24264 2 3 tcp 1000 ------- 0 0.0 3.0 11 36
+ 3.322 2 1 ack 40 ------- 1 3.1 1.0 7 34
- 3.322 2 1 ack 40 ------- 1 3.1 1.0 7 34
r 3.32704 2 1 ack 40 ------- 1 3.1 1.0 7 34
+ 3.33304 2 3 tcp 1000 ---A--- 1 1.0 3.1 8 37
- 3.33304 2 3 tcp 1000 ---A--- 1 1.0 3.1 8 37
+ 3.33404 2 3 tcp 1000 ------- 1 1.0 3.1 9 38
r 3.34264 2 3 tcp 1000 ------- 0 0.0 3.0 10 35
- 3.34304 2 3 tcp 1000 ------- 1 1.0 3.1 9 38
r 3.35264 2 3 tcp 1000 ------- 0 0.0 3.0 11 36
r 3.44304 2 3 tcp 1000 ---A--- 1 1.0 3.1 8 37
+ 3.45304 2 0 ack 40 ------- 0 3.0 0.0 11 39
- 3.45304 2 0 ack 40 ------- 0 3.0 0.0 11 39
r 3.45304 2 3 tcp 1000 ------- 1 1.0 3.1 9 38
r 3.45808 2 0 ack 40 ------- 0 3.0 0.0 11 39
+ 3.46408 2 3 tcp 1000 ------- 0 0.0 3.0 12 41
- 3.46408 2 3 tcp 1000 ------- 0 0.0 3.0 12 41
+ 3.46508 2 3 tcp 1000 ------- 0 0.0 3.0 13 42
- 3.47408 2 3 tcp 1000 ------- 0 0.0 3.0 13 42
+ 3.55344 2 1 ack 40 ------- 1 3.1 1.0 9 40
- 3.55344 2 1 ack 40 ------- 1 3.1 1.0 9 40
r 3.55848 2 1 ack 40 ------- 1 3.1 1.0 9 40
+ 3.56448 2 3 tcp 1000 ------- 1 1.0 3.1 10 43
- 3.56448 2 3 tcp 1000 ------- 1 1.0 3.1 10 43
+ 3.56548 2 3 tcp 1000 ------- 1 1.0 3.1 11 44
r 3.57408 2 3 tcp 1000 ------- 0 0.0 3.0 12 41
- 3.57448 2 3 tcp 1000 ------- 1 1.0 3.1 11 44
r 3.58408 2 3 tcp 1000 ------- 0 0.0 3.0 13 42
r 3.67448 2 3 tcp 1000 ------- 1 1.0 3.1 10 43
+ 3.68448 2 0 ack 40 ------- 0 3.0 0.0 13 45
- 3.68448 2 0 ack 40 ------- 0 3.0 0.0 13 45
r 3.68448 2 3 tcp 1000 ------- 1 1.0 3.1 11 44
r 3.68952 2 0 ack 40 ------- 0 3.0 0.0 13 45
+ 3.69552 2 3 tcp 1000 ------- 0 0.0 3.0 14 47
- 3.69552 2 3 tcp 1000 ------- 0 0.0 3.0 14 47
+ 3.69652 2 3 tcp 1000 ------- 0 0.0 3.0 15 48
+ 3.69752 2 3 tcp 1000 ------- 0 0.0 3.0 16 49
d 3.69752 2 3 tcp 1000 ------- 0 0.0 3.0 16 49
- 3.70552 2 3 tcp 1000 ------- 0 0.0 3.0 15 48
+ 3.78488 2 1 ack 40 ------- 1 3.1 1.0 11 46
- 3.78488 2 1 ack 40 ------- 1 3.1 1.0 11 46
r 3.78992 2 1 ack 40 ------- 1 3.1 1.0 11 46
+ 3.79592 2 3 tcp 1000 ------- 1 1.0 3.1 12 50
- 3.79592 2 3 tcp 1000 ------- 1 1.0 3.1 12 50
+ 3.79692 2 3 tcp 1000 ------- 1 1.0 3.1 13 51
r 3.80552 2 3 tcp 1000 ------- 0 0.0 3.0 14 47
- 3.80592 2 3 tcp 1000 ------- 1 1.0 3.1 13 51
r 3.81552 2 3 tcp 1000 ------- 0 0.0 3.0 15 48
r 3.90592 2 3 tcp 1000 ------- 1 1.0 3.1 12 50
+ 3.91592 2 0 ack 40 ------- 0 3.0 0.0 15 52
- 3.91592 2 0 ack 40 ------- 0 3.0 0.0 15 52
r 3.91592 2 3 tcp 1000 ------- 1 1.0 3.1 13 51
r 3.92096 2 0 ack 40 ------- 0 3.0 0.0 15 52
+ 3.92696 2 3 tcp 1000 ------- 0 0.0 3.0 17 54
- 3.92696 2 3 tcp 1000 ------- 0 0.0 3.0 17 54
+ 3.92796 2 3 tcp 1000 ------- 0 0.0 3.0 18 55
- 3.93696 2 3 tcp 1000 ------- 0 0.0 3.0 18 55
+ 4.01632 2 1 ack 40 ------- 1 3.1 1.0 13 53
- 4.01632 2 1 ack 40 ------- 1 3.1 1.0 13 53
r 4.02136 2 1 ack 40 ------- 1 3.1 1.0 13 53
+ 4.02736 2 3 tcp 1000 ------- 1 1.0 3.1 14 56
- 4.02736 2 3 tcp 1000 ------- 1 1.0 3.1 14 56
+ 4.02836 2 3 tcp 1000 ------- 1 1.0 3.1 15 57
+ 4.02936 2 3 tcp 1000 ------- 1 1.0 3.1 16 58
d 4.02936 2 3 tcp 1000 ------- 1 1.0 3.1 16 58
r 4.03696 2 3 tcp 1000 ------- 0 0.0 3.0 17 54
- 4.03736 2 3 tcp 1000 ------- 1 1.0 3.1 15 57
r 4.04696 2 3 tcp 1000 ------- 0 0.0 3.0 18 55
+ 4.13736 2 0 ack 40 ------- 0 3.0 0.0 15 59
- 4.13736 2 0 ack 40 ------- 0 3.0 0.0 15 59
r 4.13736 2 3 tcp 1000 ------- 1 1.0 3.1 14 56
r 4.1424 2 0 ack 40 ------- 0 3.0 0.0 15 59
+ 4.14736 2 0 ack 40 ------- 0 3.0 0.0 15 60
- 4.14736 2 0 ack 40 ------- 0 3.0 0.0 15 60
r 4.14736 2 3 tcp 1000 ------- 1 1.0 3.1 15 57
r 4.1524 2 0 ack 40 ------- 0 3.0 0.0 15 60
+ 4.24776 2 1 ack 40 ------- 1 3.1 1.0 15 61
- 4.24776 2 1 ack 40 ------- 1 3.1 1.0 15 61
r 4.2528 2 1 ack 40 ------- 1 3.1 1.0 15 61
+ 4.2588 2 3 tcp 1000 ------- 1 1.0 3.1 17 62
- 4.2588 2 3 tcp 1000 ------- 1 1.0 3.1 17 62
+ 4.2598 2 3 tcp 1000 ------- 1 1.0 3.1 18 63
- 4.2688 2 3 tcp 1000 ------- 1 1.0 3.1 18 63
r 4.3688 2 3 tcp 1000 ------- 1 1.0 3.1 17 62
r 4.3788 2 3 tcp 1000 ------- 1 1.0 3.1 18 63
+ 4.4692 2 1 ack 40 ------- 1 3.1 1.0 15 64
- 4.4692 2 1 ack 40 ------- 1 3.1 1.0 15 64
r 4.47424 2 1 ack 40 ------- 1 3.1 1.0 15 64
+ 4.4792 2 1 ack 40 ------- 1 3.1 1.0 15 65
- 4.4792 2 1 ack 40 ------- 1 3.1 1.0 15 65
r 4.48424 2 1 ack 40 ------- 1 3.1 1.0 15 65
+ 4.92696 2 3 tcp 1000 ------- 0 0.0 3.0 16 66
- 4.92696 2 3 tcp 1000 ------- 0 0.0 3.0 16 66
r 5.03696 2 3 tcp 1000 ------- 0 0.0 3.0 16 66
+ 5.13736 2 0 ack 40 ------- 0 3.0 0.0 18 67
- 5.13736 2 0 ack 40 ------- 0 3.0 0.0 18 67
r 5.1424 2 0 ack 40 ------- 0 3.0 0.0 18 67
+ 5.1484 2 3 tcp 1000 ---A--- 0 0.0 3.0 19 68
- 5.1484 2 3 tcp 1000 ---A--- 0 0.0 3.0 19 68
+ 5.1494 2 3 tcp 1000 ------- 0 0.0 3.0 20 69
- 5.1584 2 3 tcp 1000 ------- 0 0.0 3.0 20 69
r 5.2584 2 3 tcp 1000 ---A--- 0 0.0 3.0 19 68
+ 5.2588 2 3 tcp 1000 ------- 1 1.0 3.1 16 70
- 5.2588 2 3 tcp 1000 ------- 1 1.0 3.1 16 70
r 5.2684 2 3 tcp 1000 ------- 0 0.0 3.0 20 69
r 5.3688 2 3 tcp 1000 ------- 1 1.0 3.1 16 70
+ 5.3688 2 0 ack 40 ------- 0 3.0 0.0 20 71
- 5.3688 2 0 ack 40 ------- 0 3.0 0.0 20 71
r 5.37384 2 0 ack 40 ------- 0 3.0 0.0 20 71
+ 5.37984 2 3 tcp 1000 ------- 0 0.0 3.0 21 73
- 5.37984 2 3 tcp 1000 ------- 0 0.0 3.0 21 73
+ 5.38084 2 3 tcp 1000 ------- 0 0.0 3.0 22 74
- 5.38984 2 3 tcp 1000 ------- 0 0.0 3.0 22 74
+ 5.4692 2 1 ack 40 ------- 1 3.1 1.0 18 72
- 5.4692 2 1 ack 40 ------- 1 3.1 1.0 18 72
r 5.47424 2 1 ack 40 ------- 1 3.1 1.0 18 72
+ 5.48024 2 3 tcp 1000 ---A--- 1 1.0 3.1 19 75
- 5.48024 2 3 tcp 1000 ---A--- 1 1.0 3.1 19 75
+ 5.48124 2 3 tcp 1000 ------- 1 1.0 3.1 20 76
r 5.48984 2 3 tcp 1000 ------- 0 0.0 3.0 21 73
- 5.49024 2 3 tcp 1000 ------- 1 1.0 3.1 20 76
r 5.49984 2 3 tcp 1000 ------- 0 0.0 3.0 22 74
r 5.59024 2 3 tcp 1000 ---A--- 1 1.0 3.1 19 75
r 5.60024 2 3 tcp 1000 ------- 1 1.0 3.1 20 76
+ 5.60024 2 0 ack 40 ------- 0 3.0 0.0 22 77
- 5.60024 2 0 ack 40 ------- 0 3.0 0.0 22 77
r 5.60528 2 0 ack 40 ------- 0 3.0 0.0 22 77
+ 5.61128 2 3 tcp 1000 ------- 0 0.0 3.0 23 79
- 5.61128 2 3 tcp 1000 ------- 0 0.0 3.0 23 79
+ 5.61228 2 3 tcp 1000 ------- 0 0.0 3.0 24 80
- 5.62128 2 3 tcp 1000 ------- 0 0.0 3.0 24 80
+ 5.70064 2 1 ack 40 ------- 1 3.1 1.0 20 78
- 5.70064 2 1 ack 40 ------- 1 3.1 1.0 20 78
r 5.70568 2 1 ack 40 ------- 1 3.1 1.0 20 78
+ 5.71168 2 3 tcp 1000 ------- 1 1.0 3.1 21 81
- 5.71168 2 3 tcp 1000 ------- 1 1.0 3.1 21 81
+ 5.71268 2 3 tcp 1000 ------- 1 1.0 3.1 22 82
r 5.72128 2 3 tcp 1000 ------- 0 0.0 3.0 23 79
- 5.72168 2 3 tcp 1000 ------- 1 1.0 3.1 22 82
r 5.73128 2 3 tcp 1000 ------- 0 0.0 3.0 24 80
r 5.82168 2 3 tcp 1000 ------- 1 1.0 3.1 21 81
r 5.83168 2 3 tcp 1000 ------- 1 1.0 3.1 22 82
+ 5.83168 2 0 ack 40 ------- 0 3.0 0.0 24 83
- 5.83168 2 0 ack 40 ------- 0 3.0 0.0 24 83
r 5.83672 2 0 ack 40 ------- 0 3.0 0.0 24 83
+ 5.84272 2 3 tcp 1000 ------- 0 0.0 3.0 25 85
- 5.84272 2 3 tcp 1000 ------- 0 0.0 3.0 25 85
+ 5.84372 2 3 tcp 1000 ------- 0 0.0 3.0 26 86
+ 5.84472 2 3 tcp 1000 ------- 0 0.0 3.0 27 87
d 5.84472 2 3 tcp 1000 ------- 0 0.0 3.0 27 87
- 5.85272 2 3 tcp 1000 ------- 0 0.0 3.0 26 86
+ 5.93208 2 1 ack 40 ------- 1 3.1 1.0 22 84
- 5.93208 2 1 ack 40 ------- 1 3.1 1.0 22 84
r 5.93712 2 1 ack 40 ------- 1 3.1 1.0 22 84
+ 5.94312 2 3 tcp 1000 ------- 1 1.0 3.1 23 88
- 5.94312 2 3 tcp 1000 ------- 1 1.0 3.1 23 88
+ 5.94412 2 3 tcp 1000 ------- 1 1.0 3.1 24 89
r 5.95272 2 3 tcp 1000 ------- 0 0.0 3.0 25 85
- 5.95312 2 3 tcp 1000 ------- 1 1.0 3.1 24 89
r 5.96272 2 3 tcp 1000 ------- 0 0.0 3.0 26 86
r 6.05312 2 3 tcp 1000 ------- 1 1.0 3.1 23 88
r 6.06312 2 3 tcp 1000 ------- 1 1.0 3.1 24 89
+ 6.06312 2 0 ack 40 ------- 0 3.0 0.0 26 90
- 6.06312 2 0 ack 40 ------- 0 3.0 0.0 26 90
r 6.06816 2 0 ack 40 ------- 0 3.0 0.0 26 90
+ 6.07416 2 3 tcp 1000 ------- 0 0.0 3.0 28 92
- 6.07416 2 3 tcp 1000 ------- 0 0.0 3.0 28 92
+ 6.07516 2 3 tcp 1000 ------- 0 0.0 3.0 29 93
- 6.08416 2 3 tcp 1000 ------- 0 0.0 3.0 29 93
+ 6.16352 2 1 ack 40 ------- 1 3.1 1.0 24 91
- 6.16352 2 1 ack 40 ------- 1 3.1 1.0 24 91
r 6.16856 2 1 ack 40 ------- 1 3.1 1.0 24 91
+ 6.17456 2 3 tcp 1000 ------- 1 1.0 3.1 25 94
- 6.17456 2 3 tcp 1000 ------- 1 1.0 3.1 25 94
+ 6.17556 2 3 tcp 1000 ------- 1 1.0 3.1 26 95
+ 6.17656 2 3 tcp 1000 ------- 1 1.0 3.1 27 96
d 6.17656 2 3 tcp 1000 ------- 1 1.0 3.1 27 96
r 6.18416 2 3 tcp 1000 ------- 0 0.0 3.0 28 92
- 6.18456 2 3 tcp 1000 ------- 1 1.0 3.1 26 95
r 6.19416 2 3 tcp 1000 ------- 0 0.0 3.0 29 93
r 6.28456 2 3 tcp 1000 ------- 1 1.0 3.1 25 94
+ 6.28456 2 0 ack 40 ------- 0 3.0 0.0 26 97
- 6.28456 2 0 ack 40 ------- 0 3.0 0.0 26 97
r 6.2896 2 0 ack 40 ------- 0 3.0 0.0 26 97
r 6.29456 2 3 tcp 1000 ------- 1 1.0 3.1 26 95
+ 6.29456 2 0 ack 40 ------- 0 3.0 0.0 26 98
- 6.29456 2 0 ack 40 ------- 0 3.0 0.0 26 98
r 6.2996 2 0 ack 40 ------- 0 3.0 0.0 26 98
+ 6.39496 2 1 ack 40 ------- 1 3.1 1.0 26 99
- 6.39496 2 1 ack 40 ------- 1 3.1 1.0 26 99
r 6.4 2 1 ack 40 ------- 1 3.1 1.0 26 99
+ 6.406 2 3 tcp 1000 ------- 1 1.0 3.1 28 100
- 6.406 2 3 tcp 1000 ------- 1 1.0 3.1 28 100
+ 6.407 2 3 tcp 1000 ------- 1 1.0 3.1 29 101
- 6.416 2 3 tcp 1000 ------- 1 1.0 3.1 29 101
r 6.516 2 3 tcp 1000 ------- 1 1.0 3.1 28 100
r 6.526 2 3 tcp 1000 ------- 1 1.0 3.1 29 101
+ 6.6164 2 1 ack 40 ------- 1 3.1 1.0 26 102
- 6.6164 2 1 ack 40 ------- 1 3.1 1.0 26 102
r 6.62144 2 1 ack 40 ------- 1 3.1 1.0 26 102
+ 6.6264 2 1 ack 40 ------- 1 3.1 1.0 26 103
- 6.6264 2 1 ack 40 ------- 1 3.1 1.0 26 103
r 6.63144 2 1 ack 40 ------- 1 3.1 1.0 26 103
+ 7.07416 2 3 tcp 1000 ------- 0 0.0 3.0 27 104
- 7.07416 2 3 tcp 1000 ------- 0 0.0 3.0 27 104
r 7.18416 2 3 tcp 1000 ------- 0 0.0 3.0 27 104
+ 7.28456 2 0 ack 40 ------- 0 3.0 0.0 29 105
- 7.28456 2 0 ack 40 ------- 0 3.0 0.0 29 105
r 7.2896 2 0 ack 40 ------- 0 3.0 0.0 29 105
+ 7.2956 2 3 tcp 1000 ---A--- 0 0.0 3.0 30 106
- 7.2956 2 3 tcp 1000 ---A--- 0 0.0 3.0 30 106
+ 7.2966 2 3 tcp 1000 ------- 0 0.0 3.0 31 107
- 7.3056 2 3 tcp 1000 ------- 0 0.0 3.0 31 107
r 7.4056 2 3 tcp 1000 ---A--- 0 0.0 3.0 30 106
+ 7.406 2 3 tcp 1000 ------- 1 1.0 3.1 27 108
- 7.406 2 3 tcp 1000 ------- 1 1.0 3.1 27 108
r 7.4156 2 3 tcp 1000 ------- 0 0.0 3.0 31 107
r 7.516 2 3 tcp 1000 ------- 1 1.0 3.1 27 108
+ 7.516 2 0 ack 40 ------- 0 3.0 0.0 31 109
- 7.516 2 0 ack 40 ------- 0 3.0 0.0 31 109
r 7.52104 2 0 ack 40 ------- 0 3.0 0.0 31 109
+ 7.52704 2 3 tcp 1000 ------- 0 0.0 3.0 32 111
- 7.52704 2 3 tcp 1000 ------- 0 0.0 3.0 32 111
+ 7.52804 2 3 tcp 1000 ------- 0 0.0 3.0 33 112
- 7.53704 2 3 tcp 1000 ------- 0 0.0 3.0 33 112
+ 7.6164 2 1 ack 40 ------- 1 3.1 1.0 29 110
- 7.6164 2 1 ack 40 ------- 1 3.1 1.0 29 110
r 7.62144 2 1 ack 40 ------- 1 3.1 1.0 29 110
+ 7.62744 2 3 tcp 1000 ---A--- 1 1.0 3.1 30 113
- 7.62744 2 3 tcp 1000 ---A--- 1 1.0 3.1 30 113
+ 7.62844 2 3 tcp 1000 ------- 1 1.0 3.1 31 114
r 7.63704 2 3 tcp 1000 ------- 0 0.0 3.0 32 111
- 7.63744 2 3 tcp 1000 ------- 1 1.0 3.1 31 114
r 7.64704 2 3 tcp 1000 ------- 0 0.0 3.0 33 112
r 7.73744 2 3 tcp 1000 ---A--- 1 1.0 3.1 30 113
r 7.74744 2 3 tcp 1000 ------- 1 1.0 3.1 31 114
+ 7.74744 2 0 ack 40 ------- 0 3.0 0.0 33 115
- 7.74744 2 0 ack 40 ------- 0 3.0 0.0 33 115
r 7.75248 2 0 ack 40 ------- 0 3.0 0.0 33 115
+ 7.75848 2 3 tcp 1000 ------- 0 0.0 3.0 34 117
- 7.75848 2 3 tcp 1000 ------- 0 0.0 3.0 34 117
+ 7.75948 2 3 tcp 1000 ------- 0 0.0 3.0 35 118
- 7.76848 2 3 tcp 1000 ------- 0 0.0 3.0 35 118
+ 7.84784 2 1 ack 40 ------- 1 3.1 1.0 31 116
- 7.84784 2 1 ack 40 ------- 1 3.1 1.0 31 116
r 7.85288 2 1 ack 40 ------- 1 3.1 1.0 31 116
+ 7.85888 2 3 tcp 1000 ------- 1 1.0 3.1 32 119
- 7.85888 2 3 tcp 1000 ------- 1 1.0 3.1 32 119
+ 7.85988 2 3 tcp 1000 ------- 1 1.0 3.1 33 120
r 7.86848 2 3 tcp 1000 ------- 0 0.0 3.0 34 117
- 7.86888 2 3 tcp 1000 ------- 1 1.0 3.1 33 120
r 7.87848 2 3 tcp 1000 ------- 0 0.0 3.0 35 118
r 7.96888 2 3 tcp 1000 ------- 1 1.0 3.1 32 119
r 7.97888 2 3 tcp 1000 ------- 1 1.0 3.1 33 120
+ 7.97888 2 0 ack 40 ------- 0 3.0 0.0 35 121
- 7.97888 2 0 ack 40 ------- 0 3.0 0.0 35 121
r 7.98392 2 0 ack 40 ------- 0 3.0 0.0 35 121
+ 7.98992 2 3 tcp 1000 ------- 0 0.0 3.0 36 123
- 7.98992 2 3 tcp 1000 ------- 0 0.0 3.0 36 123
+ 7.99092 2 3 tcp 1000 ------- 0 0.0 3.0 37 124
+ 7.99192 2 3 tcp 1000 ------- 0 0.0 3.0 38 125
d 7.99192 2 3 tcp 1000 ------- 0 0.0 3.0 38 125
- 7.99992 2 3 tcp 1000 ------- 0 0.0 3.0 37 124
+ 8.07928 2 1 ack 40 ------- 1 3.1 1.0 33 122
- 8.07928 2 1 ack 40 ------- 1 3.1 1.0 33 122
r 8.08432 2 1 ack 40 ------- 1 3.1 1.0 33 122
+ 8.09032 2 3 tcp 1000 ------- 1 1.0 3.1 34 126
- 8.09032 2 3 tcp 1000 ------- 1 1.0 3.1 34 126
+ 8.09132 2 3 tcp 1000 ------- 1 1.0 3.1 35 127
r 8.09992 2 3 tcp 1000 ------- 0 0.0 3.0 36 123
- 8.10032 2 3 tcp 1000 ------- 1 1.0 3.1 35 127
r 8.10992 2 3 tcp 1000 ------- 0 0.0 3.0 37 124
r 8.20032 2 3 tcp 1000 ------- 1 1.0 3.1 34 126
r 8.21032 2 3 tcp 1000 ------- 1 1.0 3.1 35 127
+ 8.21032 2 0 ack 40 ------- 0 3.0 0.0 37 128
- 8.21032 2 0 ack 40 ------- 0 3.0 0.0 37 128
r 8.21536 2 0 ack 40 ------- 0 3.0 0.0 37 128
+ 8.22136 2 3 tcp 1000 ------- 0 0.0 3.0 39 130
- 8.22136 2 3 tcp 1000 ------- 0 0.0 3.0 39 130
+ 8.22236 2 3 tcp 1000 ------- 0 0.0 3.0 40 131
- 8.23136 2 3 tcp 1000 ------- 0 0.0 3.0 40 131
+ 8.31072 2 1 ack 40 ------- 1 3.1 1.0 35 129
- 8.31072 2 1 ack 40 ------- 1 3.1 1.0 35 129
r 8.31576 2 1 ack 40 ------- 1 3.1 1.0 35 129
+ 8.32176 2 3 tcp 1000 ------- 1 1.0 3.1 36 132
- 8.32176 2 3 tcp 1000 ------- 1 1.0 3.1 36 132
+ 8.32276 2 3 tcp 1000 ------- 1 1.0 3.1 37 133
+ 8.32376 2 3 tcp 1000 ------- 1 1.0 3.1 38 134
d 8.32376 2 3 tcp 1000 ------- 1 1.0 3.1 38 134
r 8.33136 2 3 tcp 1000 ------- 0 0.0 3.0 39 130
- 8.33176 2 3 tcp 1000 ------- 1 1.0 3.1 37 133
r 8.34136 2 3 tcp 1000 ------- 0 0.0 3.0 40 131
r 8.43176 2 3 tcp 1000 ------- 1 1.0 3.1 36 132
+ 8.43176 2 0 ack 40 ------- 0 3.0 0.0 37 135
- 8.43176 2 0 ack 40 ------- 0 3.0 0.0 37 135
r 8.4368 2 0 ack 40 ------- 0 3.0 0.0 37 135
r 8.44176 2 3 tcp 1000 ------- 1 1.0 3.1 37 133
+ 8.44176 2 0 ack 40 ------- 0 3.0 0.0 37 136
- 8.44176 2 0 ack 40 ------- 0 3.0 0.0 37 136
r 8.4468 2 0 ack 40 ------- 0 3.0 0.0 37 136
+ 8.54216 2 1 ack 40 ------- 1 3.1 1.0 37 137
- 8.54216 2 1 ack 40 ------- 1 3.1 1.0 37 137
r 8.5472 2 1 ack 40 ------- 1 3.1 1.0 37 137
+ 8.5532 2 3 tcp 1000 ------- 1 1.0 3.1 39 138
- 8.5532 2 3 tcp 1000 ------- 1 1.0 3.1 39 138
+ 8.5542 2 3 tcp 1000 ------- 1 1.0 3.1 40 139
- 8.5632 2 3 tcp 1000 ------- 1 1.0 3.1 40 139
r 8.6632 2 3 tcp 1000 ------- 1 1.0 3.1 39 138
r 8.6732 2 3 tcp 1000 ------- 1 1.0 3.1 40 139
+ 8.7636 2 1 ack 40 ------- 1 3.1 1.0 37 140
- 8.7636 2 1 ack 40 ------- 1 3.1 1.0 37 140
r 8.76864 2 1 ack 40 ------- 1 3.1 1.0 37 140
+ 8.7736 2 1 ack 40 ------- 1 3.1 1.0 37 141
- 8.7736 2 1 ack 40 ------- 1 3.1 1.0 37 141
r 8.77864 2 1 ack 40 ------- 1 3.1 1.0 37 141
+ 9.22136 2 3 tcp 1000 ------- 0 0.0 3.0 38 142
- 9.22136 2 3 tcp 1000 ------- 0 0.0 3.0 38 142
r 9.33136 2 3 tcp 1000 ------- 0 0.0 3.0 38 142
+ 9.43176 2 0 ack 40 ------- 0 3.0 0.0 40 143
- 9.43176 2 0 ack 40 ------- 0 3.0 0.0 40 143
r 9.4368 2 0 ack 40 ------- 0 3.0 0.0 40 143
+ 9.4428 2 3 tcp 1000 ---A--- 0 0.0 3.0 41 144
- 9.4428 2 3 tcp 1000 ---A--- 0 0.0 3.0 41 144
+ 9.4438 2 3 tcp 1000 ------- 0 0.0 3.0 42 145
- 9.4528 2 3 tcp 1000 ------- 0 0.0 3.0 42 145
r 9.5528 2 3 tcp 1000 ---A--- 0 0.0 3.0 41 144
+ 9.5532 2 3 tcp 1000 ------- 1 1.0 3.1 38 146
- 9.5532 2 3 tcp 1000 ------- 1 1.0 3.1 38 146
r 9.5628 2 3 tcp 1000 ------- 0 0.0 3.0 42 145
r 9.6632 2 3 tcp 1000 ------- 1 1.0 3.1 38 146
+ 9.6632 2 0 ack 40 ------- 0 3.0 0.0 42 147
- 9.6632 2 0 ack 40 ------- 0 3.0 0.0 42 147
r 9.66824 2 0 ack 40 ------- 0 3.0 0.0 42 147
+ 9.67424 2 3 tcp 1000 ------- 0 0.0 3.0 43 149
- 9.67424 2 3 tcp 1000 ------- 0 0.0 3.0 43 149
+ 9.67524 2 3 tcp 1000 ------- 0 0.0 3.0 44 150
- 9.68424 2 3 tcp 1000 ------- 0 0.0 3.0 44 150
+ 9.7636 2 1 ack 40 ------- 1 3.1 1.0 40 148
- 9.7636 2 1 ack 40 ------- 1 3.1 1.0 40 148
r 9.76864 2 1 ack 40 ------- 1 3.1 1.0 40 148
+ 9.77464 2 3 tcp 1000 ---A--- 1 1.0 3.1 41 151
- 9.77464 2 3 tcp 1000 ---A--- 1 1.0 3.1 41 151
+ 9.77564 2 3 tcp 1000 ------- 1 1.0 3.1 42 152
r 9.78424 2 3 tcp 1000 ------- 0 0.0 3.0 43 149
- 9.78464 2 3 tcp 1000 ------- 1 1.0 3.1 42 152
r 9.79424 2 3 tcp 1000 ------- 0 0.0 3.0 44 150
r 9.88464 2 3 tcp 1000 ---A--- 1 1.0 3.1 41 151
r 9.89464 2 3 tcp 1000 ------- 1 1.0 3.1 42 152
+ 9.89464 2 0 ack 40 ------- 0 3.0 0.0 44 153
- 9.89464 2 0 ack 40 ------- 0 3.0 0.0 44 153
r 9.89968 2 0 ack 40 ------- 0 3.0 0.0 44 153
+ 9.90568 2 3 tcp 1000 ------- 0 0.0 3.0 45 155
- 9.90568 2 3 tcp 1000 ------- 0 0.0 3.0 45 155
+ 9.90668 2 3 tcp 1000 ------- 0 0.0 3.0 46 156
- 9.91568 2 3 tcp 1000 ------- 0 0.0 3.0 46 156
+ 9.99504 2 1 ack 40 ------- 1 3.1 1.0 42 154
- 9.99504 2 1 ack 40 ------- 1 3.1 1.0 42 154
