n -t * -s 0  -x 1000 -y 5000 -Z 0 -z 1000  -v circle -c green
n -t * -s 1  -x 1000 -y 3000 -Z 0 -z 1000  -v circle -c green
n -t * -s 2  -x 1000 -y 1000 -Z 0 -z 1000  -v circle -c green
n -t * -s 3  -x 3000 -y 5000 -Z 0 -z 1000  -v circle -c green
n -t * -s 4  -x 3000 -y 3000 -Z 0 -z 1000  -v circle -c green
n -t * -s 5  -x 3000 -y 1000 -Z 0 -z 1000  -v circle -c green
n -t * -s 6  -x 5000 -y 5000 -Z 0 -z 1000  -v circle -c green
n -t * -s 7  -x 5000 -y 3000 -Z 0 -z 1000  -v circle -c green
n -t * -s 8  -x 5000 -y 1000 -Z 0 -z 1000  -v circle -c green
n -t * -s 9  -x 7000 -y 5000 -Z 0 -z 1000  -v circle -c green
n -t * -s 10  -x 7000 -y 3000 -Z 0 -z 1000  -v circle -c green
n -t * -s 11  -x 7000 -y 1000 -Z 0 -z 1000  -v circle -c green
n -t * -s 12  -x 2000 -y 6000 -Z 0 -z 1000  -v circle -c green
n -t * -s 13  -x 6000 -y 6000 -Z 0 -z 1000  -v circle -c green
V -t * -v 1.0a5 -a 0
W -t * -x 10000 -y 6000
A -t * -n 1 -p 0 -o 0xffffffff -c 31 -a 1
A -t * -h 1 -m 2147483647 -s 0
n -t 15.100000 -s 12 -x 2000.000000 -y 6000.000000 -U 0.000000 -V -2.500000 -T 2396.000000
n -t 15.100000 -s 13 -x 6000.000000 -y 6000.000000 -U 0.000000 -V -2.500000 -T 2396.000000
+ -t 26.100025000 -s 13 -d -1 -p audio -e 60 -c 2 -a 0 -i 0 -k MAC 
- -t 26.100025000 -s 13 -d -1 -p audio -e 60 -c 2 -a 0 -i 0 -k MAC
n -t 26.100025000 -s 13 -S COLOR -c red -o yellow
h -t 26.100025000 -s 13 -d -1 -p audio -e 60 -c 2 -a 0 -i 0 -k MAC -R 3000.000000
v -t 26.100025000 -e sim_annotation 26.100025000 1 node 13 sendout packet (audio) 0
+ -t 26.600025000 -s 12 -d -1 -p audio -e 60 -c 2 -a 0 -i 1 -k MAC 
- -t 26.600025000 -s 12 -d -1 -p audio -e 60 -c 2 -a 0 -i 1 -k MAC
n -t 26.600025000 -s 12 -S COLOR -c red -o yellow
h -t 26.600025000 -s 12 -d -1 -p audio -e 60 -c 2 -a 0 -i 1 -k MAC -R 3000.000000
v -t 26.600025000 -e sim_annotation 26.600025000 2 node 12 sendout packet (audio) 1
n -t 27.318152751 -s 6 -S COLOR -c red -o yellow
r -t 27.318152751 -s 6 -d -1 -p audio -e 60 -c 2 -a 0 -i 0 -k MAC -R 3000.000000
v -t 27.318152751 -e sim_annotation 27.318152751 3 node 6 receive packet(audio) 0
n -t 27.318152751 -s 9 -S COLOR -c red -o yellow
r -t 27.318152751 -s 9 -d -1 -p audio -e 60 -c 2 -a 0 -i 0 -k MAC -R 3000.000000
v -t 27.318152751 -e sim_annotation 27.318152751 4 node 9 receive packet(audio) 0
n -t 27.817571959 -s 0 -S COLOR -c red -o yellow
r -t 27.817571959 -s 0 -d -1 -p audio -e 60 -c 2 -a 0 -i 1 -k MAC -R 3000.000000
v -t 27.817571959 -e sim_annotation 27.817571959 5 node 0 receive packet(audio) 1
n -t 27.817571959 -s 3 -S COLOR -c red -o yellow
r -t 27.817571959 -s 3 -d -1 -p audio -e 60 -c 2 -a 0 -i 1 -k MAC -R 3000.000000
v -t 27.817571959 -e sim_annotation 27.817571959 6 node 3 receive packet(audio) 1
+ -t 220.600025000 -s 13 -d -1 -p audio -e 60 -c 2 -a 0 -i 6 -k MAC 
- -t 220.600025000 -s 13 -d -1 -p audio -e 60 -c 2 -a 0 -i 6 -k MAC
h -t 220.600025000 -s 13 -d -1 -p audio -e 60 -c 2 -a 0 -i 6 -k MAC -R 3000.000000
v -t 220.600025000 -e sim_annotation 220.600025000 7 node 13 sendout packet (audio) 6
r -t 221.629518858 -s 6 -d -1 -p audio -e 60 -c 2 -a 0 -i 6 -k MAC -R 3000.000000
v -t 221.629518858 -e sim_annotation 221.629518858 8 node 6 receive packet(audio) 6
r -t 221.629518858 -s 9 -d -1 -p audio -e 60 -c 2 -a 0 -i 6 -k MAC -R 3000.000000
v -t 221.629518858 -e sim_annotation 221.629518858 9 node 9 receive packet(audio) 6
n -t 222.674764104 -s 10 -S COLOR -c red -o yellow
r -t 222.674764104 -s 10 -d -1 -p audio -e 60 -c 2 -a 0 -i 6 -k MAC -R 3000.000000
v -t 222.674764104 -e sim_annotation 222.674764104 10 node 10 receive packet(audio) 6
+ -t 223.100025000 -s 12 -d -1 -p audio -e 60 -c 2 -a 0 -i 7 -k MAC 
- -t 223.100025000 -s 12 -d -1 -p audio -e 60 -c 2 -a 0 -i 7 -k MAC
h -t 223.100025000 -s 12 -d -1 -p audio -e 60 -c 2 -a 0 -i 7 -k MAC -R 3000.000000
v -t 223.100025000 -e sim_annotation 223.100025000 11 node 12 sendout packet (audio) 7
r -t 224.127706295 -s 0 -d -1 -p audio -e 60 -c 2 -a 0 -i 7 -k MAC -R 3000.000000
v -t 224.127706295 -e sim_annotation 224.127706295 12 node 0 receive packet(audio) 7
r -t 224.127706295 -s 3 -d -1 -p audio -e 60 -c 2 -a 0 -i 7 -k MAC -R 3000.000000
v -t 224.127706295 -e sim_annotation 224.127706295 13 node 3 receive packet(audio) 7
n -t 225.170899085 -s 4 -S COLOR -c red -o yellow
r -t 225.170899085 -s 4 -d -1 -p audio -e 60 -c 2 -a 0 -i 7 -k MAC -R 3000.000000
v -t 225.170899085 -e sim_annotation 225.170899085 14 node 4 receive packet(audio) 7
+ -t 422.600025000 -s 13 -d -1 -p audio -e 60 -c 2 -a 0 -i 10 -k MAC 
- -t 422.600025000 -s 13 -d -1 -p audio -e 60 -c 2 -a 0 -i 10 -k MAC
h -t 422.600025000 -s 13 -d -1 -p audio -e 60 -c 2 -a 0 -i 10 -k MAC -R 3000.000000
v -t 422.600025000 -e sim_annotation 422.600025000 15 node 13 sendout packet (audio) 10
r -t 423.555000845 -s 6 -d -1 -p audio -e 60 -c 2 -a 0 -i 10 -k MAC -R 3000.000000
v -t 423.555000845 -e sim_annotation 423.555000845 16 node 6 receive packet(audio) 10
r -t 423.555000845 -s 9 -d -1 -p audio -e 60 -c 2 -a 0 -i 10 -k MAC -R 3000.000000
v -t 423.555000845 -e sim_annotation 423.555000845 17 node 9 receive packet(audio) 10
n -t 424.367759169 -s 7 -S COLOR -c red -o yellow
r -t 424.367759169 -s 7 -d -1 -p audio -e 60 -c 2 -a 0 -i 10 -k MAC -R 3000.000000
v -t 424.367759169 -e sim_annotation 424.367759169 18 node 7 receive packet(audio) 10
r -t 424.367759169 -s 10 -d -1 -p audio -e 60 -c 2 -a 0 -i 10 -k MAC -R 3000.000000
v -t 424.367759169 -e sim_annotation 424.367759169 19 node 10 receive packet(audio) 10
+ -t 427.600025000 -s 12 -d -1 -p audio -e 60 -c 2 -a 0 -i 11 -k MAC 
- -t 427.600025000 -s 12 -d -1 -p audio -e 60 -c 2 -a 0 -i 11 -k MAC
h -t 427.600025000 -s 12 -d -1 -p audio -e 60 -c 2 -a 0 -i 11 -k MAC -R 3000.000000
v -t 427.600025000 -e sim_annotation 427.600025000 20 node 12 sendout packet (audio) 11
r -t 428.555209109 -s 0 -d -1 -p audio -e 60 -c 2 -a 0 -i 11 -k MAC -R 3000.000000
v -t 428.555209109 -e sim_annotation 428.555209109 21 node 0 receive packet(audio) 11
r -t 428.555209109 -s 3 -d -1 -p audio -e 60 -c 2 -a 0 -i 11 -k MAC -R 3000.000000
v -t 428.555209109 -e sim_annotation 428.555209109 22 node 3 receive packet(audio) 11
n -t 429.360324532 -s 1 -S COLOR -c red -o yellow
r -t 429.360324532 -s 1 -d -1 -p audio -e 60 -c 2 -a 0 -i 11 -k MAC -R 3000.000000
v -t 429.360324532 -e sim_annotation 429.360324532 23 node 1 receive packet(audio) 11
r -t 429.360324532 -s 4 -d -1 -p audio -e 60 -c 2 -a 0 -i 11 -k MAC -R 3000.000000
v -t 429.360324532 -e sim_annotation 429.360324532 24 node 4 receive packet(audio) 11
+ -t 621.100025000 -s 12 -d -1 -p audio -e 60 -c 2 -a 0 -i 15 -k MAC 
- -t 621.100025000 -s 12 -d -1 -p audio -e 60 -c 2 -a 0 -i 15 -k MAC
h -t 621.100025000 -s 12 -d -1 -p audio -e 60 -c 2 -a 0 -i 15 -k MAC -R 3000.000000
v -t 621.100025000 -e sim_annotation 621.100025000 25 node 12 sendout packet (audio) 15
r -t 622.138098491 -s 0 -d -1 -p audio -e 60 -c 2 -a 0 -i 15 -k MAC -R 3000.000000
v -t 622.138098491 -e sim_annotation 622.138098491 26 node 0 receive packet(audio) 15
r -t 622.138098491 -s 3 -d -1 -p audio -e 60 -c 2 -a 0 -i 15 -k MAC -R 3000.000000
v -t 622.138098491 -e sim_annotation 622.138098491 27 node 3 receive packet(audio) 15
r -t 622.581759778 -s 1 -d -1 -p audio -e 60 -c 2 -a 0 -i 15 -k MAC -R 3000.000000
v -t 622.581759778 -e sim_annotation 622.581759778 28 node 1 receive packet(audio) 15
r -t 622.581759778 -s 4 -d -1 -p audio -e 60 -c 2 -a 0 -i 15 -k MAC -R 3000.000000
v -t 622.581759778 -e sim_annotation 622.581759778 29 node 4 receive packet(audio) 15
+ -t 630.100025000 -s 13 -d -1 -p audio -e 60 -c 2 -a 0 -i 14 -k MAC 
- -t 630.100025000 -s 13 -d -1 -p audio -e 60 -c 2 -a 0 -i 14 -k MAC
h -t 630.100025000 -s 13 -d -1 -p audio -e 60 -c 2 -a 0 -i 14 -k MAC -R 3000.000000
v -t 630.100025000 -e sim_annotation 630.100025000 30 node 13 sendout packet (audio) 14
r -t 631.145083733 -s 6 -d -1 -p audio -e 60 -c 2 -a 0 -i 14 -k MAC -R 3000.000000
v -t 631.145083733 -e sim_annotation 631.145083733 31 node 6 receive packet(audio) 14
r -t 631.145083733 -s 9 -d -1 -p audio -e 60 -c 2 -a 0 -i 14 -k MAC -R 3000.000000
v -t 631.145083733 -e sim_annotation 631.145083733 32 node 9 receive packet(audio) 14
r -t 631.569347545 -s 7 -d -1 -p audio -e 60 -c 2 -a 0 -i 14 -k MAC -R 3000.000000
v -t 631.569347545 -e sim_annotation 631.569347545 33 node 7 receive packet(audio) 14
r -t 631.569347545 -s 10 -d -1 -p audio -e 60 -c 2 -a 0 -i 14 -k MAC -R 3000.000000
v -t 631.569347545 -e sim_annotation 631.569347545 34 node 10 receive packet(audio) 14
+ -t 822.100025000 -s 13 -d -1 -p audio -e 60 -c 2 -a 0 -i 16 -k MAC 
- -t 822.100025000 -s 13 -d -1 -p audio -e 60 -c 2 -a 0 -i 16 -k MAC
h -t 822.100025000 -s 13 -d -1 -p audio -e 60 -c 2 -a 0 -i 16 -k MAC -R 3000.000000
v -t 822.100025000 -e sim_annotation 822.100025000 35 node 13 sendout packet (audio) 16
r -t 823.322812843 -s 7 -d -1 -p audio -e 60 -c 2 -a 0 -i 16 -k MAC -R 3000.000000
v -t 823.322812843 -e sim_annotation 823.322812843 36 node 7 receive packet(audio) 16
r -t 823.322812843 -s 10 -d -1 -p audio -e 60 -c 2 -a 0 -i 16 -k MAC -R 3000.000000
v -t 823.322812843 -e sim_annotation 823.322812843 37 node 10 receive packet(audio) 16
r -t 823.339311429 -s 6 -d -1 -p audio -e 60 -c 2 -a 0 -i 16 -k MAC -R 3000.000000
v -t 823.339311429 -e sim_annotation 823.339311429 38 node 6 receive packet(audio) 16
r -t 823.339311429 -s 9 -d -1 -p audio -e 60 -c 2 -a 0 -i 16 -k MAC -R 3000.000000
v -t 823.339311429 -e sim_annotation 823.339311429 39 node 9 receive packet(audio) 16
+ -t 827.100025000 -s 12 -d -1 -p audio -e 60 -c 2 -a 0 -i 17 -k MAC 
- -t 827.100025000 -s 12 -d -1 -p audio -e 60 -c 2 -a 0 -i 17 -k MAC
h -t 827.100025000 -s 12 -d -1 -p audio -e 60 -c 2 -a 0 -i 17 -k MAC -R 3000.000000
v -t 827.100025000 -e sim_annotation 827.100025000 40 node 12 sendout packet (audio) 17
r -t 828.316991552 -s 1 -d -1 -p audio -e 60 -c 2 -a 0 -i 17 -k MAC -R 3000.000000
v -t 828.316991552 -e sim_annotation 828.316991552 41 node 1 receive packet(audio) 17
r -t 828.316991552 -s 4 -d -1 -p audio -e 60 -c 2 -a 0 -i 17 -k MAC -R 3000.000000
v -t 828.316991552 -e sim_annotation 828.316991552 42 node 4 receive packet(audio) 17
r -t 828.345272700 -s 0 -d -1 -p audio -e 60 -c 2 -a 0 -i 17 -k MAC -R 3000.000000
v -t 828.345272700 -e sim_annotation 828.345272700 43 node 0 receive packet(audio) 17
r -t 828.345272700 -s 3 -d -1 -p audio -e 60 -c 2 -a 0 -i 17 -k MAC -R 3000.000000
v -t 828.345272700 -e sim_annotation 828.345272700 44 node 3 receive packet(audio) 17
+ -t 1021.600025000 -s 12 -d -1 -p audio -e 60 -c 2 -a 0 -i 19 -k MAC 
- -t 1021.600025000 -s 12 -d -1 -p audio -e 60 -c 2 -a 0 -i 19 -k MAC
h -t 1021.600025000 -s 12 -d -1 -p audio -e 60 -c 2 -a 0 -i 19 -k MAC -R 3000.000000
v -t 1021.600025000 -e sim_annotation 1021.600025000 45 node 12 sendout packet (audio) 19
r -t 1022.628791552 -s 1 -d -1 -p audio -e 60 -c 2 -a 0 -i 19 -k MAC -R 3000.000000
v -t 1022.628791552 -e sim_annotation 1022.628791552 46 node 1 receive packet(audio) 19
r -t 1022.628791552 -s 4 -d -1 -p audio -e 60 -c 2 -a 0 -i 19 -k MAC -R 3000.000000
v -t 1022.628791552 -e sim_annotation 1022.628791552 47 node 4 receive packet(audio) 19
r -t 1023.099096249 -s 0 -d -1 -p audio -e 60 -c 2 -a 0 -i 19 -k MAC -R 3000.000000
v -t 1023.099096249 -e sim_annotation 1023.099096249 48 node 0 receive packet(audio) 19
r -t 1023.099096249 -s 3 -d -1 -p audio -e 60 -c 2 -a 0 -i 19 -k MAC -R 3000.000000
v -t 1023.099096249 -e sim_annotation 1023.099096249 49 node 3 receive packet(audio) 19
n -t 1023.673217934 -s 5 -S COLOR -c red -o yellow
r -t 1023.673217934 -s 5 -d -1 -p audio -e 60 -c 2 -a 0 -i 19 -k MAC -R 3000.000000
v -t 1023.673217934 -e sim_annotation 1023.673217934 50 node 5 receive packet(audio) 19
+ -t 1029.600025000 -s 13 -d -1 -p audio -e 60 -c 2 -a 0 -i 18 -k MAC 
- -t 1029.600025000 -s 13 -d -1 -p audio -e 60 -c 2 -a 0 -i 18 -k MAC
h -t 1029.600025000 -s 13 -d -1 -p audio -e 60 -c 2 -a 0 -i 18 -k MAC -R 3000.000000
v -t 1029.600025000 -e sim_annotation 1029.600025000 51 node 13 sendout packet (audio) 18
r -t 1030.623083278 -s 7 -d -1 -p audio -e 60 -c 2 -a 0 -i 18 -k MAC -R 3000.000000
v -t 1030.623083278 -e sim_annotation 1030.623083278 52 node 7 receive packet(audio) 18
r -t 1030.623083278 -s 10 -d -1 -p audio -e 60 -c 2 -a 0 -i 18 -k MAC -R 3000.000000
v -t 1030.623083278 -e sim_annotation 1030.623083278 53 node 10 receive packet(audio) 18
r -t 1031.110248870 -s 6 -d -1 -p audio -e 60 -c 2 -a 0 -i 18 -k MAC -R 3000.000000
v -t 1031.110248870 -e sim_annotation 1031.110248870 54 node 6 receive packet(audio) 18
r -t 1031.110248870 -s 9 -d -1 -p audio -e 60 -c 2 -a 0 -i 18 -k MAC -R 3000.000000
v -t 1031.110248870 -e sim_annotation 1031.110248870 55 node 9 receive packet(audio) 18
n -t 1031.660856432 -s 11 -S COLOR -c red -o yellow
r -t 1031.660856432 -s 11 -d -1 -p audio -e 60 -c 2 -a 0 -i 18 -k MAC -R 3000.000000
v -t 1031.660856432 -e sim_annotation 1031.660856432 56 node 11 receive packet(audio) 18
+ -t 1033.210248870 -s 6 -d -1 -p RTS -e 44 -c 2 -a 0 -i 0 -k MAC 
- -t 1033.210248870 -s 6 -d -1 -p RTS -e 44 -c 2 -a 0 -i 0 -k MAC
n -t 1033.210248870 -s 6 -S COLOR -c red -o yellow
h -t 1033.210248870 -s 6 -d -1 -p RTS -e 44 -c 2 -a 0 -i 0 -k MAC -R 3000.000000
v -t 1033.210248870 -e sim_annotation 1033.210248870 57 node 6 sendout packet (RTS) 0
n -t 1034.597519922 -s 13 -S COLOR -c red -o yellow
r -t 1034.597519922 -s 13 -d -1 -p RTS -e 44 -c 2 -a 0 -i 0 -k MAC -R 3000.000000
v -t 1034.597519922 -e sim_annotation 1034.597519922 58 node 13 receive packet(RTS) 0
+ -t 1034.697519922 -s 13 -d -1 -p CTS -e 38 -c 2 -a 0 -i 0 -k MAC 
- -t 1034.697519922 -s 13 -d -1 -p CTS -e 38 -c 2 -a 0 -i 0 -k MAC
h -t 1034.697519922 -s 13 -d -1 -p CTS -e 38 -c 2 -a 0 -i 0 -k MAC -R 3000.000000
v -t 1034.697519922 -e sim_annotation 1034.697519922 59 node 13 sendout packet (CTS) 0
n -t 1036.038872754 -s 6 -S COLOR -c red -o yellow
r -t 1036.038872754 -s 6 -d -1 -p CTS -e 38 -c 2 -a 0 -i 0 -k MAC -R 3000.000000
v -t 1036.038872754 -e sim_annotation 1036.038872754 60 node 6 receive packet(CTS) 0
+ -t 1036.138872754 -s 6 -d -1 -p udp -e 352 -c 2 -a 0 -i 2 -k MAC 
- -t 1036.138872754 -s 6 -d -1 -p udp -e 352 -c 2 -a 0 -i 2 -k MAC
h -t 1036.138872754 -s 6 -d -1 -p udp -e 352 -c 2 -a 0 -i 2 -k MAC -R 3000.000000
v -t 1036.138872754 -e sim_annotation 1036.138872754 61 node 6 sendout packet (udp) 2
+ -t 1038.863064754 -s 6 -d -1 -p cbr -e 352 -c 2 -a 0 -i 21 -k MAC 
- -t 1038.863064754 -s 6 -d -1 -p cbr -e 352 -c 2 -a 0 -i 21 -k MAC
h -t 1038.863064754 -s 6 -d -1 -p cbr -e 352 -c 2 -a 0 -i 21 -k MAC -R 3000.000000
v -t 1038.863064754 -e sim_annotation 1038.863064754 62 node 6 sendout packet (cbr) 21
+ -t 1039.917621959 -s 0 -d -1 -p RTS -e 44 -c 2 -a 0 -i 0 -k MAC 
- -t 1039.917621959 -s 0 -d -1 -p RTS -e 44 -c 2 -a 0 -i 0 -k MAC
n -t 1039.917621959 -s 0 -S COLOR -c red -o yellow
h -t 1039.917621959 -s 0 -d -1 -p RTS -e 44 -c 2 -a 0 -i 0 -k MAC -R 3000.000000
v -t 1039.917621959 -e sim_annotation 1039.917621959 63 node 0 sendout packet (RTS) 0
n -t 1039.994244497 -s 13 -S COLOR -c red -o yellow
r -t 1039.994244497 -s 13 -d -1 -p udp -e 300 -c 2 -a 0 -i 2 -k MAC -R 3000.000000
v -t 1039.994244497 -e sim_annotation 1039.994244497 64 node 13 receive packet(udp) 2
n -t 1041.314293124 -s 12 -S COLOR -c red -o yellow
r -t 1041.314293124 -s 12 -d -1 -p RTS -e 44 -c 2 -a 0 -i 0 -k MAC -R 3000.000000
v -t 1041.314293124 -e sim_annotation 1041.314293124 65 node 12 receive packet(RTS) 0
+ -t 1041.414293124 -s 12 -d -1 -p CTS -e 38 -c 2 -a 0 -i 0 -k MAC 
- -t 1041.414293124 -s 12 -d -1 -p CTS -e 38 -c 2 -a 0 -i 0 -k MAC
h -t 1041.414293124 -s 12 -d -1 -p CTS -e 38 -c 2 -a 0 -i 0 -k MAC -R 3000.000000
v -t 1041.414293124 -e sim_annotation 1041.414293124 66 node 12 sendout packet (CTS) 0
r -t 1042.722256035 -s 13 -d -1 -p cbr -e 300 -c 2 -a 0 -i 21 -k MAC -R 3000.000000
v -t 1042.722256035 -e sim_annotation 1042.722256035 67 node 13 receive packet(cbr) 21
n -t 1042.765065846 -s 0 -S COLOR -c red -o yellow
r -t 1042.765065846 -s 0 -d -1 -p CTS -e 38 -c 2 -a 0 -i 0 -k MAC -R 3000.000000
v -t 1042.765065846 -e sim_annotation 1042.765065846 68 node 0 receive packet(CTS) 0
+ -t 1042.822256035 -s 13 -d -1 -p ACK -e 38 -c 2 -a 0 -i 0 -k MAC 
- -t 1042.822256035 -s 13 -d -1 -p ACK -e 38 -c 2 -a 0 -i 0 -k MAC
h -t 1042.822256035 -s 13 -d -1 -p ACK -e 38 -c 2 -a 0 -i 0 -k MAC -R 3000.000000
v -t 1042.822256035 -e sim_annotation 1042.822256035 69 node 13 sendout packet (ACK) 0
+ -t 1042.865065846 -s 0 -d -1 -p udp -e 352 -c 2 -a 0 -i 4 -k MAC 
- -t 1042.865065846 -s 0 -d -1 -p udp -e 352 -c 2 -a 0 -i 4 -k MAC
h -t 1042.865065846 -s 0 -d -1 -p udp -e 352 -c 2 -a 0 -i 4 -k MAC -R 3000.000000
v -t 1042.865065846 -e sim_annotation 1042.865065846 70 node 0 sendout packet (udp) 4
r -t 1044.175007084 -s 6 -d -1 -p ACK -e 38 -c 2 -a 0 -i 0 -k MAC -R 3000.000000
v -t 1044.175007084 -e sim_annotation 1044.175007084 71 node 6 receive packet(ACK) 0
+ -t 1045.589257846 -s 0 -d -1 -p cbr -e 352 -c 2 -a 0 -i 23 -k MAC 
- -t 1045.589257846 -s 0 -d -1 -p cbr -e 352 -c 2 -a 0 -i 23 -k MAC
h -t 1045.589257846 -s 0 -d -1 -p cbr -e 352 -c 2 -a 0 -i 23 -k MAC -R 3000.000000
v -t 1045.589257846 -e sim_annotation 1045.589257846 72 node 0 sendout packet (cbr) 23
n -t 1046.729877066 -s 12 -S COLOR -c red -o yellow
r -t 1046.729877066 -s 12 -d -1 -p udp -e 300 -c 2 -a 0 -i 4 -k MAC -R 3000.000000
v -t 1046.729877066 -e sim_annotation 1046.729877066 73 node 12 receive packet(udp) 4
r -t 1049.457900533 -s 12 -d -1 -p cbr -e 300 -c 2 -a 0 -i 23 -k MAC -R 3000.000000
v -t 1049.457900533 -e sim_annotation 1049.457900533 74 node 12 receive packet(cbr) 23
+ -t 1049.557900533 -s 12 -d -1 -p ACK -e 38 -c 2 -a 0 -i 0 -k MAC 
- -t 1049.557900533 -s 12 -d -1 -p ACK -e 38 -c 2 -a 0 -i 0 -k MAC
h -t 1049.557900533 -s 12 -d -1 -p ACK -e 38 -c 2 -a 0 -i 0 -k MAC -R 3000.000000
v -t 1049.557900533 -e sim_annotation 1049.557900533 75 node 12 sendout packet (ACK) 0
r -t 1050.920133451 -s 0 -d -1 -p ACK -e 38 -c 2 -a 0 -i 0 -k MAC -R 3000.000000
v -t 1050.920133451 -e sim_annotation 1050.920133451 76 node 0 receive packet(ACK) 0
+ -t 1054.775007084 -s 9 -d -1 -p RTS -e 44 -c 2 -a 0 -i 0 -k MAC 
- -t 1054.775007084 -s 9 -d -1 -p RTS -e 44 -c 2 -a 0 -i 0 -k MAC
n -t 1054.775007084 -s 9 -S COLOR -c red -o yellow
h -t 1054.775007084 -s 9 -d -1 -p RTS -e 44 -c 2 -a 0 -i 0 -k MAC -R 3000.000000
v -t 1054.775007084 -e sim_annotation 1054.775007084 77 node 9 sendout packet (RTS) 0
r -t 1056.192603945 -s 13 -d -1 -p RTS -e 44 -c 2 -a 0 -i 0 -k MAC -R 3000.000000
v -t 1056.192603945 -e sim_annotation 1056.192603945 78 node 13 receive packet(RTS) 0
+ -t 1056.292603945 -s 13 -d -1 -p CTS -e 38 -c 2 -a 0 -i 0 -k MAC 
- -t 1056.292603945 -s 13 -d -1 -p CTS -e 38 -c 2 -a 0 -i 0 -k MAC
h -t 1056.292603945 -s 13 -d -1 -p CTS -e 38 -c 2 -a 0 -i 0 -k MAC -R 3000.000000
v -t 1056.292603945 -e sim_annotation 1056.292603945 79 node 13 sendout packet (CTS) 0
n -t 1057.664346080 -s 9 -S COLOR -c red -o yellow
r -t 1057.664346080 -s 9 -d -1 -p CTS -e 38 -c 2 -a 0 -i 0 -k MAC -R 3000.000000
v -t 1057.664346080 -e sim_annotation 1057.664346080 80 node 9 receive packet(CTS) 0
+ -t 1057.764346080 -s 9 -d -1 -p udp -e 352 -c 2 -a 0 -i 3 -k MAC 
- -t 1057.764346080 -s 9 -d -1 -p udp -e 352 -c 2 -a 0 -i 3 -k MAC
h -t 1057.764346080 -s 9 -d -1 -p udp -e 352 -c 2 -a 0 -i 3 -k MAC -R 3000.000000
v -t 1057.764346080 -e sim_annotation 1057.764346080 81 node 9 sendout packet (udp) 3
+ -t 1058.520133451 -s 3 -d -1 -p RTS -e 44 -c 2 -a 0 -i 0 -k MAC 
- -t 1058.520133451 -s 3 -d -1 -p RTS -e 44 -c 2 -a 0 -i 0 -k MAC
n -t 1058.520133451 -s 3 -S COLOR -c red -o yellow
h -t 1058.520133451 -s 3 -d -1 -p RTS -e 44 -c 2 -a 0 -i 0 -k MAC -R 3000.000000
v -t 1058.520133451 -e sim_annotation 1058.520133451 82 node 3 sendout packet (RTS) 0
r -t 1059.943026995 -s 12 -d -1 -p RTS -e 44 -c 2 -a 0 -i 0 -k MAC -R 3000.000000
v -t 1059.943026995 -e sim_annotation 1059.943026995 83 node 12 receive packet(RTS) 0
+ -t 1060.043026995 -s 12 -d -1 -p CTS -e 38 -c 2 -a 0 -i 0 -k MAC 
- -t 1060.043026995 -s 12 -d -1 -p CTS -e 38 -c 2 -a 0 -i 0 -k MAC
h -t 1060.043026995 -s 12 -d -1 -p CTS -e 38 -c 2 -a 0 -i 0 -k MAC -R 3000.000000
v -t 1060.043026995 -e sim_annotation 1060.043026995 84 node 12 sendout packet (CTS) 0
+ -t 1060.488538080 -s 9 -d -1 -p cbr -e 352 -c 2 -a 0 -i 22 -k MAC 
- -t 1060.488538080 -s 9 -d -1 -p cbr -e 352 -c 2 -a 0 -i 22 -k MAC
h -t 1060.488538080 -s 9 -d -1 -p cbr -e 352 -c 2 -a 0 -i 22 -k MAC -R 3000.000000
v -t 1060.488538080 -e sim_annotation 1060.488538080 85 node 9 sendout packet (cbr) 22
n -t 1061.420076814 -s 3 -S COLOR -c red -o yellow
r -t 1061.420076814 -s 3 -d -1 -p CTS -e 38 -c 2 -a 0 -i 0 -k MAC -R 3000.000000
v -t 1061.420076814 -e sim_annotation 1061.420076814 86 node 3 receive packet(CTS) 0
+ -t 1061.520076814 -s 3 -d -1 -p udp -e 352 -c 2 -a 0 -i 5 -k MAC 
- -t 1061.520076814 -s 3 -d -1 -p udp -e 352 -c 2 -a 0 -i 5 -k MAC
h -t 1061.520076814 -s 3 -d -1 -p udp -e 352 -c 2 -a 0 -i 5 -k MAC -R 3000.000000
v -t 1061.520076814 -e sim_annotation 1061.520076814 87 node 3 sendout packet (udp) 5
r -t 1061.650170028 -s 13 -d -1 -p udp -e 300 -c 2 -a 0 -i 3 -k MAC -R 3000.000000
v -t 1061.650170028 -e sim_annotation 1061.650170028 88 node 13 receive packet(udp) 3
+ -t 1064.244268814 -s 3 -d -1 -p cbr -e 352 -c 2 -a 0 -i 24 -k MAC 
- -t 1064.244268814 -s 3 -d -1 -p cbr -e 352 -c 2 -a 0 -i 24 -k MAC
h -t 1064.244268814 -s 3 -d -1 -p cbr -e 352 -c 2 -a 0 -i 24 -k MAC -R 3000.000000
v -t 1064.244268814 -e sim_annotation 1064.244268814 89 node 3 sendout packet (cbr) 24
r -t 1064.378218968 -s 13 -d -1 -p cbr -e 300 -c 2 -a 0 -i 22 -k MAC -R 3000.000000
v -t 1064.378218968 -e sim_annotation 1064.378218968 90 node 13 receive packet(cbr) 22
+ -t 1064.478218968 -s 13 -d -1 -p ACK -e 38 -c 2 -a 0 -i 0 -k MAC 
- -t 1064.478218968 -s 13 -d -1 -p ACK -e 38 -c 2 -a 0 -i 0 -k MAC
h -t 1064.478218968 -s 13 -d -1 -p ACK -e 38 -c 2 -a 0 -i 0 -k MAC -R 3000.000000
v -t 1064.478218968 -e sim_annotation 1064.478218968 91 node 13 sendout packet (ACK) 0
r -t 1065.411219347 -s 12 -d -1 -p udp -e 300 -c 2 -a 0 -i 5 -k MAC -R 3000.000000
v -t 1065.411219347 -e sim_annotation 1065.411219347 92 node 12 receive packet(udp) 5
r -t 1065.861556636 -s 9 -d -1 -p ACK -e 38 -c 2 -a 0 -i 0 -k MAC -R 3000.000000
v -t 1065.861556636 -e sim_annotation 1065.861556636 93 node 9 receive packet(ACK) 0
r -t 1068.139274509 -s 12 -d -1 -p cbr -e 300 -c 2 -a 0 -i 24 -k MAC -R 3000.000000
v -t 1068.139274509 -e sim_annotation 1068.139274509 94 node 12 receive packet(cbr) 24
+ -t 1068.239274509 -s 12 -d -1 -p ACK -e 38 -c 2 -a 0 -i 0 -k MAC 
- -t 1068.239274509 -s 12 -d -1 -p ACK -e 38 -c 2 -a 0 -i 0 -k MAC
h -t 1068.239274509 -s 12 -d -1 -p ACK -e 38 -c 2 -a 0 -i 0 -k MAC -R 3000.000000
v -t 1068.239274509 -e sim_annotation 1068.239274509 95 node 12 sendout packet (ACK) 0
r -t 1069.627953564 -s 3 -d -1 -p ACK -e 38 -c 2 -a 0 -i 0 -k MAC -R 3000.000000
v -t 1069.627953564 -e sim_annotation 1069.627953564 96 node 3 receive packet(ACK) 0
+ -t 1224.274814104 -s 10 -d -1 -p RTS -e 44 -c 2 -a 0 -i 0 -k MAC 
- -t 1224.274814104 -s 10 -d -1 -p RTS -e 44 -c 2 -a 0 -i 0 -k MAC
n -t 1224.274814104 -s 10 -S COLOR -c red -o yellow
h -t 1224.274814104 -s 10 -d -1 -p RTS -e 44 -c 2 -a 0 -i 0 -k MAC -R 3000.000000
v -t 1224.274814104 -e sim_annotation 1224.274814104 97 node 10 sendout packet (RTS) 0
r -t 1225.101848117 -s 13 -d -1 -p RTS -e 44 -c 2 -a 0 -i 0 -k MAC -R 3000.000000
v -t 1225.101848117 -e sim_annotation 1225.101848117 98 node 13 receive packet(RTS) 0
+ -t 1225.201848117 -s 13 -d -1 -p CTS -e 38 -c 2 -a 0 -i 0 -k MAC 
- -t 1225.201848117 -s 13 -d -1 -p CTS -e 38 -c 2 -a 0 -i 0 -k MAC
h -t 1225.201848117 -s 13 -d -1 -p CTS -e 38 -c 2 -a 0 -i 0 -k MAC -R 3000.000000
v -t 1225.201848117 -e sim_annotation 1225.201848117 99 node 13 sendout packet (CTS) 0
n -t 1225.980919349 -s 10 -S COLOR -c red -o yellow
r -t 1225.980919349 -s 10 -d -1 -p CTS -e 38 -c 2 -a 0 -i 0 -k MAC -R 3000.000000
v -t 1225.980919349 -e sim_annotation 1225.980919349 100 node 10 receive packet(CTS) 0
+ -t 1226.080919349 -s 10 -d -1 -p udp -e 352 -c 2 -a 0 -i 8 -k MAC 
- -t 1226.080919349 -s 10 -d -1 -p udp -e 352 -c 2 -a 0 -i 8 -k MAC
h -t 1226.080919349 -s 10 -d -1 -p udp -e 352 -c 2 -a 0 -i 8 -k MAC -R 3000.000000
v -t 1226.080919349 -e sim_annotation 1226.080919349 101 node 10 sendout packet (udp) 8
+ -t 1226.100025000 -s 12 -d -1 -p audio -e 60 -c 2 -a 0 -i 27 -k MAC 
- -t 1226.100025000 -s 12 -d -1 -p audio -e 60 -c 2 -a 0 -i 27 -k MAC
h -t 1226.100025000 -s 12 -d -1 -p audio -e 60 -c 2 -a 0 -i 27 -k MAC -R 3000.000000
v -t 1226.100025000 -e sim_annotation 1226.100025000 102 node 12 sendout packet (audio) 27
r -t 1227.055135704 -s 1 -d -1 -p audio -e 60 -c 2 -a 0 -i 27 -k MAC -R 3000.000000
v -t 1227.055135704 -e sim_annotation 1227.055135704 103 node 1 receive packet(audio) 27
r -t 1227.055135704 -s 4 -d -1 -p audio -e 60 -c 2 -a 0 -i 27 -k MAC -R 3000.000000
v -t 1227.055135704 -e sim_annotation 1227.055135704 104 node 4 receive packet(audio) 27
n -t 1227.862553914 -s 2 -S COLOR -c red -o yellow
r -t 1227.862553914 -s 2 -d -1 -p audio -e 60 -c 2 -a 0 -i 27 -k MAC -R 3000.000000
v -t 1227.862553914 -e sim_annotation 1227.862553914 105 node 2 receive packet(audio) 27
r -t 1227.862553914 -s 5 -d -1 -p audio -e 60 -c 2 -a 0 -i 27 -k MAC -R 3000.000000
v -t 1227.862553914 -e sim_annotation 1227.862553914 106 node 5 receive packet(audio) 27
r -t 1227.895349156 -s 0 -d -1 -p audio -e 60 -c 2 -a 0 -i 27 -k MAC -R 3000.000000
v -t 1227.895349156 -e sim_annotation 1227.895349156 107 node 0 receive packet(audio) 27
r -t 1227.895349156 -s 3 -d -1 -p audio -e 60 -c 2 -a 0 -i 27 -k MAC -R 3000.000000
v -t 1227.895349156 -e sim_annotation 1227.895349156 108 node 3 receive packet(audio) 27
+ -t 1228.805111349 -s 10 -d -1 -p cbr -e 352 -c 2 -a 0 -i 28 -k MAC 
- -t 1228.805111349 -s 10 -d -1 -p cbr -e 352 -c 2 -a 0 -i 28 -k MAC
h -t 1228.805111349 -s 10 -d -1 -p cbr -e 352 -c 2 -a 0 -i 28 -k MAC -R 3000.000000
v -t 1228.805111349 -e sim_annotation 1228.805111349 109 node 10 sendout packet (cbr) 28
+ -t 1229.155135704 -s 4 -d -1 -p RTS -e 44 -c 2 -a 0 -i 0 -k MAC 
- -t 1229.155135704 -s 4 -d -1 -p RTS -e 44 -c 2 -a 0 -i 0 -k MAC
n -t 1229.155135704 -s 4 -S COLOR -c red -o yellow
h -t 1229.155135704 -s 4 -d -1 -p RTS -e 44 -c 2 -a 0 -i 0 -k MAC -R 3000.000000
v -t 1229.155135704 -e sim_annotation 1229.155135704 110 node 4 sendout packet (RTS) 0
r -t 1229.372029178 -s 13 -d -1 -p udp -e 300 -c 2 -a 0 -i 8 -k MAC -R 3000.000000
v -t 1229.372029178 -e sim_annotation 1229.372029178 111 node 13 receive packet(udp) 8
r -t 1229.982405799 -s 12 -d -1 -p RTS -e 44 -c 2 -a 0 -i 0 -k MAC -R 3000.000000
v -t 1229.982405799 -e sim_annotation 1229.982405799 112 node 12 receive packet(RTS) 0
+ -t 1230.082405799 -s 12 -d -1 -p CTS -e 38 -c 2 -a 0 -i 0 -k MAC 
- -t 1230.082405799 -s 12 -d -1 -p CTS -e 38 -c 2 -a 0 -i 0 -k MAC
h -t 1230.082405799 -s 12 -d -1 -p CTS -e 38 -c 2 -a 0 -i 0 -k MAC -R 3000.000000
v -t 1230.082405799 -e sim_annotation 1230.082405799 113 node 12 sendout packet (CTS) 0
n -t 1230.861731953 -s 4 -S COLOR -c red -o yellow
r -t 1230.861731953 -s 4 -d -1 -p CTS -e 38 -c 2 -a 0 -i 0 -k MAC -R 3000.000000
v -t 1230.861731953 -e sim_annotation 1230.861731953 114 node 4 receive packet(CTS) 0
+ -t 1230.961731953 -s 4 -d -1 -p udp -e 352 -c 2 -a 0 -i 9 -k MAC 
- -t 1230.961731953 -s 4 -d -1 -p udp -e 352 -c 2 -a 0 -i 9 -k MAC
h -t 1230.961731953 -s 4 -d -1 -p udp -e 352 -c 2 -a 0 -i 9 -k MAC -R 3000.000000
v -t 1230.961731953 -e sim_annotation 1230.961731953 115 node 4 sendout packet (udp) 9
r -t 1232.096361213 -s 13 -d -1 -p cbr -e 300 -c 2 -a 0 -i 28 -k MAC -R 3000.000000
v -t 1232.096361213 -e sim_annotation 1232.096361213 116 node 13 receive packet(cbr) 28
+ -t 1232.196361213 -s 13 -d -1 -p ACK -e 38 -c 2 -a 0 -i 0 -k MAC 
- -t 1232.196361213 -s 13 -d -1 -p ACK -e 38 -c 2 -a 0 -i 0 -k MAC
h -t 1232.196361213 -s 13 -d -1 -p ACK -e 38 -c 2 -a 0 -i 0 -k MAC -R 3000.000000
v -t 1232.196361213 -e sim_annotation 1232.196361213 117 node 13 sendout packet (ACK) 0
r -t 1232.975828530 -s 10 -d -1 -p ACK -e 38 -c 2 -a 0 -i 0 -k MAC -R 3000.000000
v -t 1232.975828530 -e sim_annotation 1232.975828530 118 node 10 receive packet(ACK) 0
+ -t 1233.685923953 -s 4 -d -1 -p cbr -e 352 -c 2 -a 0 -i 29 -k MAC 
- -t 1233.685923953 -s 4 -d -1 -p cbr -e 352 -c 2 -a 0 -i 29 -k MAC
h -t 1233.685923953 -s 4 -d -1 -p cbr -e 352 -c 2 -a 0 -i 29 -k MAC -R 3000.000000
v -t 1233.685923953 -e sim_annotation 1233.685923953 119 node 4 sendout packet (cbr) 29
r -t 1234.253114569 -s 12 -d -1 -p udp -e 300 -c 2 -a 0 -i 9 -k MAC -R 3000.000000
v -t 1234.253114569 -e sim_annotation 1234.253114569 120 node 12 receive packet(udp) 9
r -t 1236.977501891 -s 12 -d -1 -p cbr -e 300 -c 2 -a 0 -i 29 -k MAC -R 3000.000000
v -t 1236.977501891 -e sim_annotation 1236.977501891 121 node 12 receive packet(cbr) 29
+ -t 1237.077501891 -s 12 -d -1 -p ACK -e 38 -c 2 -a 0 -i 0 -k MAC 
- -t 1237.077501891 -s 12 -d -1 -p ACK -e 38 -c 2 -a 0 -i 0 -k MAC
h -t 1237.077501891 -s 12 -d -1 -p ACK -e 38 -c 2 -a 0 -i 0 -k MAC -R 3000.000000
v -t 1237.077501891 -e sim_annotation 1237.077501891 122 node 12 sendout packet (ACK) 0
+ -t 1237.408553213 -s 13 -d -1 -p audio -e 60 -c 2 -a 0 -i 26 -k MAC 
- -t 1237.408553213 -s 13 -d -1 -p audio -e 60 -c 2 -a 0 -i 26 -k MAC
h -t 1237.408553213 -s 13 -d -1 -p audio -e 60 -c 2 -a 0 -i 26 -k MAC -R 3000.000000
v -t 1237.408553213 -e sim_annotation 1237.408553213 123 node 13 sendout packet (audio) 26
r -t 1237.857366072 -s 4 -d -1 -p ACK -e 38 -c 2 -a 0 -i 0 -k MAC -R 3000.000000
v -t 1237.857366072 -e sim_annotation 1237.857366072 124 node 4 receive packet(ACK) 0
r -t 1238.364447891 -s 7 -d -1 -p audio -e 60 -c 2 -a 0 -i 26 -k MAC -R 3000.000000
v -t 1238.364447891 -e sim_annotation 1238.364447891 125 node 7 receive packet(audio) 26
r -t 1238.364447891 -s 10 -d -1 -p audio -e 60 -c 2 -a 0 -i 26 -k MAC -R 3000.000000
v -t 1238.364447891 -e sim_annotation 1238.364447891 126 node 10 receive packet(audio) 26