vectorbased
M 0.0 nn 14 x 10000 y 6000 z 0
M 0.0 prop Propagation/UnderwaterPropagation ant Antenna/OmniAntenna
M 15.10000 12 (2000.00, 6000.00, 0.00), (2000.00, 10.00), 2.50
M 15.10000 13 (6000.00, 6000.00, 0.00), (6000.00, 10.00), 2.50
s 15.500025000 _12_ MAC  --- 1 audio 60 [0 ffffffff c 800] [energy 199997.000000 ei 3.000 es 0.000 et 0.000 er 0.000] ------- [3:60 1:0 0 0] 
M 15.10000 12 (2000.00, 6000.00, 0.00), (2000.00, 10.00), 2.50
M 15.10000 13 (6000.00, 6000.00, 0.00), (6000.00, 10.00), 2.50
r 16.730554726 _0_ MAC  --- 1 audio 60 [0 ffffffff c 800] [energy 199996.423335 ei 3.288 es 0.000 et 0.000 er 0.288] ------- [3:60 1:0 0 0] 
r 16.730554726 _3_ MAC  --- 1 audio 60 [0 ffffffff c 800] [energy 199996.423335 ei 3.288 es 0.000 et 0.000 er 0.288] ------- [3:60 1:0 0 0] 
M 15.10000 12 (2000.00, 6000.00, 0.00), (2000.00, 10.00), 2.50
M 15.10000 13 (6000.00, 6000.00, 0.00), (6000.00, 10.00), 2.50
M 15.10000 12 (2000.00, 6000.00, 0.00), (2000.00, 10.00), 2.50
M 15.10000 13 (6000.00, 6000.00, 0.00), (6000.00, 10.00), 2.50
s 18.900025000 _13_ MAC  --- 0 audio 60 [0 ffffffff d 800] [energy 199996.400000 ei 3.600 es 0.000 et 0.000 er 0.000] ------- [3:60 0:0 0 0] 
M 15.10000 12 (2000.00, 6000.00, 0.00), (2000.00, 10.00), 2.50
M 15.10000 13 (6000.00, 6000.00, 0.00), (6000.00, 10.00), 2.50
M 15.10000 12 (2000.00, 6000.00, 0.00), (2000.00, 10.00), 2.50
M 15.10000 13 (6000.00, 6000.00, 0.00), (6000.00, 10.00), 2.50
r 20.126558356 _6_ MAC  --- 0 audio 60 [0 ffffffff d 800] [energy 199995.744135 ei 3.968 es 0.000 et 0.000 er 0.288] ------- [3:60 0:0 0 0] 
r 20.126558356 _9_ MAC  --- 0 audio 60 [0 ffffffff d 800] [energy 199995.744135 ei 3.968 es 0.000 et 0.000 er 0.288] ------- [3:60 0:0 0 0] 
M 15.10000 12 (2000.00, 6000.00, 0.00), (2000.00, 10.00), 2.50
M 15.10000 13 (6000.00, 6000.00, 0.00), (6000.00, 10.00), 2.50
M 15.10000 12 (2000.00, 6000.00, 0.00), (2000.00, 10.00), 2.50
M 15.10000 13 (6000.00, 6000.00, 0.00), (6000.00, 10.00), 2.50
M 15.10000 12 (2000.00, 6000.00, 0.00), (2000.00, 10.00), 2.50
M 15.10000 13 (6000.00, 6000.00, 0.00), (6000.00, 10.00), 2.50
M 15.10000 12 (2000.00, 6000.00, 0.00), (2000.00, 10.00), 2.50
M 15.10000 13 (6000.00, 6000.00, 0.00), (6000.00, 10.00), 2.50
M 15.10000 12 (2000.00, 6000.00, 0.00), (2000.00, 10.00), 2.50
M 15.10000 13 (6000.00, 6000.00, 0.00), (6000.00, 10.00), 2.50
M 15.10000 12 (2000.00, 6000.00, 0.00), (2000.00, 10.00), 2.50
M 15.10000 13 (6000.00, 6000.00, 0.00), (6000.00, 10.00), 2.50
M 15.10000 12 (2000.00, 6000.00, 0.00), (2000.00, 10.00), 2.50
M 15.10000 13 (6000.00, 6000.00, 0.00), (6000.00, 10.00), 2.50
M 15.10000 12 (2000.00, 6000.00, 0.00), (2000.00, 10.00), 2.50
M 15.10000 13 (6000.00, 6000.00, 0.00), (6000.00, 10.00), 2.50
M 15.10000 12 (2000.00, 6000.00, 0.00), (2000.00, 10.00), 2.50
M 15.10000 13 (6000.00, 6000.00, 0.00), (6000.00, 10.00), 2.50
M 15.10000 12 (2000.00, 6000.00, 0.00), (2000.00, 10.00), 2.50
M 15.10000 13 (6000.00, 6000.00, 0.00), (6000.00, 10.00), 2.50
M 15.10000 12 (2000.00, 6000.00, 0.00), (2000.00, 10.00), 2.50
M 15.10000 13 (6000.00, 6000.00, 0.00), (6000.00, 10.00), 2.50
M 15.10000 12 (2000.00, 6000.00, 0.00), (2000.00, 10.00), 2.50
M 15.10000 13 (6000.00, 6000.00, 0.00), (6000.00, 10.00), 2.50
M 15.10000 12 (2000.00, 6000.00, 0.00), (2000.00, 10.00), 2.50
M 15.10000 13 (6000.00, 6000.00, 0.00), (6000.00, 10.00), 2.50
M 15.10000 12 (2000.00, 6000.00, 0.00), (2000.00, 10.00), 2.50
M 15.10000 13 (6000.00, 6000.00, 0.00), (6000.00, 10.00), 2.50
M 15.10000 12 (2000.00, 6000.00, 0.00), (2000.00, 10.00), 2.50
M 15.10000 13 (6000.00, 6000.00, 0.00), (6000.00, 10.00), 2.50
M 15.10000 12 (2000.00, 6000.00, 0.00), (2000.00, 10.00), 2.50
M 15.10000 13 (6000.00, 6000.00, 0.00), (6000.00, 10.00), 2.50
M 15.10000 12 (2000.00, 6000.00, 0.00), (2000.00, 10.00), 2.50
M 15.10000 13 (6000.00, 6000.00, 0.00), (6000.00, 10.00), 2.50
M 15.10000 12 (2000.00, 6000.00, 0.00), (2000.00, 10.00), 2.50
M 15.10000 13 (6000.00, 6000.00, 0.00), (6000.00, 10.00), 2.50
M 15.10000 12 (2000.00, 6000.00, 0.00), (2000.00, 10.00), 2.50
M 15.10000 13 (6000.00, 6000.00, 0.00), (6000.00, 10.00), 2.50
M 15.10000 12 (2000.00, 6000.00, 0.00), (2000.00, 10.00), 2.50
M 15.10000 13 (6000.00, 6000.00, 0.00), (6000.00, 10.00), 2.50
M 15.10000 12 (2000.00, 6000.00, 0.00), (2000.00, 10.00), 2.50
M 15.10000 13 (6000.00, 6000.00, 0.00), (6000.00, 10.00), 2.50
M 15.10000 12 (2000.00, 6000.00, 0.00), (2000.00, 10.00), 2.50
M 15.10000 13 (6000.00, 6000.00, 0.00), (6000.00, 10.00), 2.50
M 15.10000 12 (2000.00, 6000.00, 0.00), (2000.00, 10.00), 2.50
M 15.10000 13 (6000.00, 6000.00, 0.00), (6000.00, 10.00), 2.50
M 15.10000 12 (2000.00, 6000.00, 0.00), (2000.00, 10.00), 2.50
M 15.10000 13 (6000.00, 6000.00, 0.00), (6000.00, 10.00), 2.50
M 15.10000 12 (2000.00, 6000.00, 0.00), (2000.00, 10.00), 2.50
M 15.10000 13 (6000.00, 6000.00, 0.00), (6000.00, 10.00), 2.50
M 15.10000 12 (2000.00, 6000.00, 0.00), (2000.00, 10.00), 2.50
M 15.10000 13 (6000.00, 6000.00, 0.00), (6000.00, 10.00), 2.50
M 15.10000 12 (2000.00, 6000.00, 0.00), (2000.00, 10.00), 2.50
M 15.10000 13 (6000.00, 6000.00, 0.00), (6000.00, 10.00), 2.50
M 15.10000 12 (2000.00, 6000.00, 0.00), (2000.00, 10.00), 2.50
M 15.10000 13 (6000.00, 6000.00, 0.00), (6000.00, 10.00), 2.50
M 15.10000 12 (2000.00, 6000.00, 0.00), (2000.00, 10.00), 2.50
M 15.10000 13 (6000.00, 6000.00, 0.00), (6000.00, 10.00), 2.50
M 15.10000 12 (2000.00, 6000.00, 0.00), (2000.00, 10.00), 2.50
M 15.10000 13 (6000.00, 6000.00, 0.00), (6000.00, 10.00), 2.50
M 15.10000 12 (2000.00, 6000.00, 0.00), (2000.00, 10.00), 2.50
M 15.10000 13 (6000.00, 6000.00, 0.00), (6000.00, 10.00), 2.50
M 15.10000 12 (2000.00, 6000.00, 0.00), (2000.00, 10.00), 2.50
M 15.10000 13 (6000.00, 6000.00, 0.00), (6000.00, 10.00), 2.50
M 15.10000 12 (2000.00, 6000.00, 0.00), (2000.00, 10.00), 2.50
M 15.10000 13 (6000.00, 6000.00, 0.00), (6000.00, 10.00), 2.50
s 53.563938059 _0_ MAC  --- 0 RTS 44 [f0c0 c 0 0] [energy 199989.169446 ei 10.542 es 0.000 et 0.000 er 0.288] 
M 15.10000 12 (2000.00, 6000.00, 0.00), (2000.00, 10.00), 2.50
M 15.10000 13 (6000.00, 6000.00, 0.00), (6000.00, 10.00), 2.50
r 54.622752962 _12_ MAC  --- 0 RTS 44 [f0c0 c 0 0] [energy 199980.359174 ei 10.835 es 0.000 et 8.646 er 0.160] 
s 54.722752962 _12_ MAC  --- 0 CTS 38 [b3e0 0 0 0] [energy 199980.359174 ei 10.835 es 0.000 et 8.646 er 0.160] 
s 54.959941689 _6_ MAC  --- 0 RTS 44 [f0c0 d 6 0] [energy 199988.969446 ei 10.742 es 0.000 et 0.000 er 0.288] 
M 15.10000 12 (2000.00, 6000.00, 0.00), (2000.00, 10.00), 2.50
M 15.10000 13 (6000.00, 6000.00, 0.00), (6000.00, 10.00), 2.50
r 55.732273962 _0_ MAC  --- 0 CTS 38 [b3e0 0 0 0] [energy 199983.759516 ei 11.034 es 0.000 et 4.806 er 0.400] 
s 55.832273962 _0_ MAC  --- 2 udp 352 [3ce0 c 0 800] [energy 199983.759516 ei 11.034 es 0.000 et 4.806 er 0.400] ------- [1:352 2:0 0 0] 
M 15.10000 12 (2000.00, 6000.00, 0.00), (2000.00, 10.00), 2.50
M 15.10000 13 (6000.00, 6000.00, 0.00), (6000.00, 10.00), 2.50
r 56.017198133 _13_ MAC  --- 0 RTS 44 [f0c0 d 6 0] [energy 199980.080285 ei 11.114 es 0.000 et 8.646 er 0.160] 
s 56.117198133 _13_ MAC  --- 0 CTS 38 [b3e0 6 0 0] [energy 199980.080285 ei 11.114 es 0.000 et 8.646 er 0.160] 
M 15.10000 12 (2000.00, 6000.00, 0.00), (2000.00, 10.00), 2.50
M 15.10000 13 (6000.00, 6000.00, 0.00), (6000.00, 10.00), 2.50
r 57.125165173 _6_ MAC  --- 0 CTS 38 [b3e0 6 0 0] [energy 199983.480938 ei 11.313 es 0.000 et 4.806 er 0.400] 
s 57.225165173 _6_ MAC  --- 4 udp 352 [3ce0 d 6 800] [energy 199983.480938 ei 11.313 es 0.000 et 4.806 er 0.400] ------- [1:352 4:0 0 0] 
M 15.10000 12 (2000.00, 6000.00, 0.00), (2000.00, 10.00), 2.50
M 15.10000 13 (6000.00, 6000.00, 0.00), (6000.00, 10.00), 2.50
s 58.556465962 _0_ MAC  --- 6 cbr 352 [3ce0 c 0 800] [energy 199905.013756 ei 11.054 es 0.000 et 83.532 er 0.400] ------- [2:352 6:0 0 0] [352] 0 0
M 15.10000 12 (2000.00, 6000.00, 0.00), (2000.00, 10.00), 2.50
M 15.10000 13 (6000.00, 6000.00, 0.00), (6000.00, 10.00), 2.50
s 59.949357173 _6_ MAC  --- 8 cbr 352 [3ce0 d 6 800] [energy 199904.735178 ei 11.333 es 0.000 et 83.532 er 0.400] ------- [2:352 8:0 0 0] [352] 0 0
M 15.10000 12 (2000.00, 6000.00, 0.00), (2000.00, 10.00), 2.50
M 15.10000 13 (6000.00, 6000.00, 0.00), (6000.00, 10.00), 2.50
M 15.10000 12 (2000.00, 6000.00, 0.00), (2000.00, 10.00), 2.50
M 15.10000 13 (6000.00, 6000.00, 0.00), (6000.00, 10.00), 2.50
M 15.10000 12 (2000.00, 6000.00, 0.00), (2000.00, 10.00), 2.50
M 15.10000 13 (6000.00, 6000.00, 0.00), (6000.00, 10.00), 2.50
r 62.073722741 _12_ MAC  --- 6 cbr 300 [3ce0 c 0 800] [energy 199971.326951 ei 11.253 es 0.000 et 12.012 er 5.409] ------- [2:300 6:0 0 0] [300] 1 0
s 62.173722741 _12_ MAC  --- 0 ACK 38 [0 0 0 0] [energy 199971.326951 ei 11.253 es 0.000 et 12.012 er 5.409] 
M 15.10000 12 (2000.00, 6000.00, 0.00), (2000.00, 10.00), 2.50
M 15.10000 13 (6000.00, 6000.00, 0.00), (6000.00, 10.00), 2.50
r 63.174979413 _0_ MAC  --- 0 ACK 38 [0 0 0 0] [energy 199825.779379 ei 11.451 es 0.000 et 162.257 er 0.513] 
r 63.465070935 _13_ MAC  --- 8 cbr 300 [3ce0 d 6 800] [energy 199971.048682 ei 11.531 es 0.000 et 12.012 er 5.409] ------- [2:300 8:0 0 0] [300] 1 0
s 63.565070935 _13_ MAC  --- 0 ACK 38 [0 6 0 0] [energy 199971.048682 ei 11.531 es 0.000 et 12.012 er 5.409] 
M 15.10000 12 (2000.00, 6000.00, 0.00), (2000.00, 10.00), 2.50
M 15.10000 13 (6000.00, 6000.00, 0.00), (6000.00, 10.00), 2.50
r 64.564795104 _6_ MAC  --- 0 ACK 38 [0 6 0 0] [energy 199825.501415 ei 11.729 es 0.000 et 162.257 er 0.513] 
M 15.10000 12 (2000.00, 6000.00, 0.00), (2000.00, 10.00), 2.50
M 15.10000 13 (6000.00, 6000.00, 0.00), (6000.00, 10.00), 2.50
M 15.10000 12 (2000.00, 6000.00, 0.00), (2000.00, 10.00), 2.50
M 15.10000 13 (6000.00, 6000.00, 0.00), (6000.00, 10.00), 2.50
M 15.10000 12 (2000.00, 6000.00, 0.00), (2000.00, 10.00), 2.50
M 15.10000 13 (6000.00, 6000.00, 0.00), (6000.00, 10.00), 2.50
M 15.10000 12 (2000.00, 6000.00, 0.00), (2000.00, 10.00), 2.50
M 15.10000 13 (6000.00, 6000.00, 0.00), (6000.00, 10.00), 2.50
M 15.10000 12 (2000.00, 6000.00, 0.00), (2000.00, 10.00), 2.50
M 15.10000 13 (6000.00, 6000.00, 0.00), (6000.00, 10.00), 2.50
M 15.10000 12 (2000.00, 6000.00, 0.00), (2000.00, 10.00), 2.50
M 15.10000 13 (6000.00, 6000.00, 0.00), (6000.00, 10.00), 2.50
M 15.10000 12 (2000.00, 6000.00, 0.00), (2000.00, 10.00), 2.50
M 15.10000 13 (6000.00, 6000.00, 0.00), (6000.00, 10.00), 2.50
M 15.10000 12 (2000.00, 6000.00, 0.00), (2000.00, 10.00), 2.50
M 15.10000 13 (6000.00, 6000.00, 0.00), (6000.00, 10.00), 2.50
M 15.10000 12 (2000.00, 6000.00, 0.00), (2000.00, 10.00), 2.50
M 15.10000 13 (6000.00, 6000.00, 0.00), (6000.00, 10.00), 2.50
M 15.10000 12 (2000.00, 6000.00, 0.00), (2000.00, 10.00), 2.50
M 15.10000 13 (6000.00, 6000.00, 0.00), (6000.00, 10.00), 2.50
M 15.10000 12 (2000.00, 6000.00, 0.00), (2000.00, 10.00), 2.50
M 15.10000 13 (6000.00, 6000.00, 0.00), (6000.00, 10.00), 2.50
M 15.10000 12 (2000.00, 6000.00, 0.00), (2000.00, 10.00), 2.50
M 15.10000 13 (6000.00, 6000.00, 0.00), (6000.00, 10.00), 2.50
M 15.10000 12 (2000.00, 6000.00, 0.00), (2000.00, 10.00), 2.50
M 15.10000 13 (6000.00, 6000.00, 0.00), (6000.00, 10.00), 2.50
M 15.10000 12 (2000.00, 6000.00, 0.00), (2000.00, 10.00), 2.50
M 15.10000 13 (6000.00, 6000.00, 0.00), (6000.00, 10.00), 2.50
M 15.10000 12 (2000.00, 6000.00, 0.00), (2000.00, 10.00), 2.50
M 15.10000 13 (6000.00, 6000.00, 0.00), (6000.00, 10.00), 2.50
M 15.10000 12 (2000.00, 6000.00, 0.00), (2000.00, 10.00), 2.50
M 15.10000 13 (6000.00, 6000.00, 0.00), (6000.00, 10.00), 2.50
M 15.10000 12 (2000.00, 6000.00, 0.00), (2000.00, 10.00), 2.50
M 15.10000 13 (6000.00, 6000.00, 0.00), (6000.00, 10.00), 2.50
M 15.10000 12 (2000.00, 6000.00, 0.00), (2000.00, 10.00), 2.50
M 15.10000 13 (6000.00, 6000.00, 0.00), (6000.00, 10.00), 2.50
M 15.10000 12 (2000.00, 6000.00, 0.00), (2000.00, 10.00), 2.50
M 15.10000 13 (6000.00, 6000.00, 0.00), (6000.00, 10.00), 2.50
M 15.10000 12 (2000.00, 6000.00, 0.00), (2000.00, 10.00), 2.50
M 15.10000 13 (6000.00, 6000.00, 0.00), (6000.00, 10.00), 2.50
M 15.10000 12 (2000.00, 6000.00, 0.00), (2000.00, 10.00), 2.50
M 15.10000 13 (6000.00, 6000.00, 0.00), (6000.00, 10.00), 2.50
M 15.10000 12 (2000.00, 6000.00, 0.00), (2000.00, 10.00), 2.50
M 15.10000 13 (6000.00, 6000.00, 0.00), (6000.00, 10.00), 2.50
M 15.10000 12 (2000.00, 6000.00, 0.00), (2000.00, 10.00), 2.50
M 15.10000 13 (6000.00, 6000.00, 0.00), (6000.00, 10.00), 2.50
M 15.10000 12 (2000.00, 6000.00, 0.00), (2000.00, 10.00), 2.50
M 15.10000 13 (6000.00, 6000.00, 0.00), (6000.00, 10.00), 2.50
s 88.693275023 _9_ MAC  --- 0 RTS 44 [f0c0 d 9 0] [energy 199977.663078 ei 16.416 es 0.000 et 0.000 er 5.921] 
M 15.10000 12 (2000.00, 6000.00, 0.00), (2000.00, 10.00), 2.50
M 15.10000 13 (6000.00, 6000.00, 0.00), (6000.00, 10.00), 2.50
s 89.297271392 _3_ MAC  --- 0 RTS 44 [f0c0 c 3 0] [energy 199976.230365 ei 16.308 es 0.000 et 0.000 er 7.462] 
r 89.713927736 _13_ MAC  --- 0 RTS 44 [f0c0 d 9 0] [energy 199962.327435 ei 16.727 es 0.000 et 15.377 er 5.569] 
s 89.813927736 _13_ MAC  --- 0 CTS 38 [b3e0 9 0 0] [energy 199962.327435 ei 16.727 es 0.000 et 15.377 er 5.569] 
M 15.10000 12 (2000.00, 6000.00, 0.00), (2000.00, 10.00), 2.50
M 15.10000 13 (6000.00, 6000.00, 0.00), (6000.00, 10.00), 2.50
r 90.317288016 _12_ MAC  --- 0 RTS 44 [f0c0 c 3 0] [energy 199962.206763 ei 16.847 es 0.000 et 15.377 er 5.569] 
s 90.417288016 _12_ MAC  --- 0 CTS 38 [b3e0 3 0 0] [energy 199962.206763 ei 16.847 es 0.000 et 15.377 er 5.569] 
r 90.785400813 _9_ MAC  --- 0 CTS 38 [b3e0 9 0 0] [energy 199972.242523 ei 16.918 es 0.000 et 4.806 er 6.033] 
s 90.885400813 _9_ MAC  --- 5 udp 352 [3ce0 d 9 800] [energy 199972.242523 ei 16.918 es 0.000 et 4.806 er 6.033] ------- [1:352 5:0 0 0] 
M 15.10000 12 (2000.00, 6000.00, 0.00), (2000.00, 10.00), 2.50
M 15.10000 13 (6000.00, 6000.00, 0.00), (6000.00, 10.00), 2.50
r 91.388126987 _3_ MAC  --- 0 CTS 38 [b3e0 3 0 0] [energy 199970.889265 ei 16.731 es 0.000 et 4.806 er 7.574] 
s 91.488126987 _3_ MAC  --- 7 udp 352 [3ce0 c 3 800] [energy 199970.889265 ei 16.731 es 0.000 et 4.806 er 7.574] ------- [1:352 7:0 0 0] 
M 15.10000 12 (2000.00, 6000.00, 0.00), (2000.00, 10.00), 2.50
M 15.10000 13 (6000.00, 6000.00, 0.00), (6000.00, 10.00), 2.50
M 15.10000 12 (2000.00, 6000.00, 0.00), (2000.00, 10.00), 2.50
M 15.10000 13 (6000.00, 6000.00, 0.00), (6000.00, 10.00), 2.50
s 93.609592813 _9_ MAC  --- 13 cbr 352 [3ce0 d 9 800] [energy 199893.496763 ei 16.938 es 0.000 et 83.532 er 6.033] ------- [2:352 13:0 0 0] [352] 0 0
M 15.10000 12 (2000.00, 6000.00, 0.00), (2000.00, 10.00), 2.50
M 15.10000 13 (6000.00, 6000.00, 0.00), (6000.00, 10.00), 2.50
s 94.212318987 _3_ MAC  --- 11 cbr 352 [3ce0 c 3 800] [energy 199892.143505 ei 16.751 es 0.000 et 83.532 er 7.574] ------- [2:352 11:0 0 0] [352] 0 0
M 15.10000 12 (2000.00, 6000.00, 0.00), (2000.00, 10.00), 2.50
M 15.10000 13 (6000.00, 6000.00, 0.00), (6000.00, 10.00), 2.50
M 15.10000 12 (2000.00, 6000.00, 0.00), (2000.00, 10.00), 2.50
M 15.10000 13 (6000.00, 6000.00, 0.00), (6000.00, 10.00), 2.50
M 15.10000 12 (2000.00, 6000.00, 0.00), (2000.00, 10.00), 2.50
M 15.10000 13 (6000.00, 6000.00, 0.00), (6000.00, 10.00), 2.50
r 97.089088661 _13_ MAC  --- 13 cbr 300 [3ce0 d 9 800] [energy 199953.310374 ei 17.129 es 0.000 et 18.743 er 10.817] ------- [2:300 13:0 0 0] [300] 1 0
s 97.189088661 _13_ MAC  --- 0 ACK 38 [0 9 0 0] [energy 199953.310374 ei 17.129 es 0.000 et 18.743 er 10.817] 
r 97.691185882 _12_ MAC  --- 11 cbr 300 [3ce0 c 3 800] [energy 199953.189955 ei 17.250 es 0.000 et 18.743 er 10.817] ------- [2:300 11:0 0 0] [300] 1 0
s 97.791185882 _12_ MAC  --- 0 ACK 38 [0 3 0 0] [energy 199953.189955 ei 17.250 es 0.000 et 18.743 er 10.817] 
M 15.10000 12 (2000.00, 6000.00, 0.00), (2000.00, 10.00), 2.50
M 15.10000 13 (6000.00, 6000.00, 0.00), (6000.00, 10.00), 2.50
r 98.152859827 _9_ MAC  --- 0 ACK 38 [0 9 0 0] [energy 199814.277434 ei 17.320 es 0.000 et 162.257 er 6.146] 
r 98.754333038 _3_ MAC  --- 0 ACK 38 [0 3 0 0] [energy 199812.924427 ei 17.132 es 0.000 et 162.257 er 7.686] 
M 15.10000 12 (2000.00, 6000.00, 0.00), (2000.00, 10.00), 2.50
M 15.10000 13 (6000.00, 6000.00, 0.00), (6000.00, 10.00), 2.50
M 15.10000 12 (2000.00, 6000.00, 0.00), (2000.00, 10.00), 2.50
M 15.10000 13 (6000.00, 6000.00, 0.00), (6000.00, 10.00), 2.50
M 15.10000 12 (2000.00, 6000.00, 0.00), (2000.00, 10.00), 2.50
M 15.10000 13 (6000.00, 6000.00, 0.00), (6000.00, 10.00), 2.50
M 15.10000 12 (2000.00, 6000.00, 0.00), (2000.00, 10.00), 2.50
M 15.10000 13 (6000.00, 6000.00, 0.00), (6000.00, 10.00), 2.50
M 15.10000 12 (2000.00, 6000.00, 0.00), (2000.00, 10.00), 2.50
M 15.10000 13 (6000.00, 6000.00, 0.00), (6000.00, 10.00), 2.50
M 15.10000 12 (2000.00, 6000.00, 0.00), (2000.00, 10.00), 2.50
M 15.10000 13 (6000.00, 6000.00, 0.00), (6000.00, 10.00), 2.50
M 15.10000 12 (2000.00, 6000.00, 0.00), (2000.00, 10.00), 2.50
M 15.10000 13 (6000.00, 6000.00, 0.00), (6000.00, 10.00), 2.50
M 15.10000 12 (2000.00, 6000.00, 0.00), (2000.00, 10.00), 2.50
M 15.10000 13 (6000.00, 6000.00, 0.00), (6000.00, 10.00), 2.50
M 15.10000 12 (2000.00, 6000.00, 0.00), (2000.00, 10.00), 2.50
M 15.10000 13 (6000.00, 6000.00, 0.00), (6000.00, 10.00), 2.50
M 15.10000 12 (2000.00, 6000.00, 0.00), (2000.00, 10.00), 2.50
M 15.10000 13 (6000.00, 6000.00, 0.00), (6000.00, 10.00), 2.50
M 15.10000 12 (2000.00, 6000.00, 0.00), (2000.00, 10.00), 2.50
M 15.10000 13 (6000.00, 6000.00, 0.00), (6000.00, 10.00), 2.50
M 15.10000 12 (2000.00, 6000.00, 0.00), (2000.00, 10.00), 2.50
M 15.10000 13 (6000.00, 6000.00, 0.00), (6000.00, 10.00), 2.50
M 15.10000 12 (2000.00, 6000.00, 0.00), (2000.00, 10.00), 2.50
M 15.10000 13 (6000.00, 6000.00, 0.00), (6000.00, 10.00), 2.50
M 15.10000 12 (2000.00, 6000.00, 0.00), (2000.00, 10.00), 2.50
M 15.10000 13 (6000.00, 6000.00, 0.00), (6000.00, 10.00), 2.50
M 15.10000 12 (2000.00, 6000.00, 0.00), (2000.00, 10.00), 2.50
M 15.10000 13 (6000.00, 6000.00, 0.00), (6000.00, 10.00), 2.50
M 15.10000 12 (2000.00, 6000.00, 0.00), (2000.00, 10.00), 2.50
M 15.10000 13 (6000.00, 6000.00, 0.00), (6000.00, 10.00), 2.50
M 15.10000 12 (2000.00, 6000.00, 0.00), (2000.00, 10.00), 2.50
M 15.10000 13 (6000.00, 6000.00, 0.00), (6000.00, 10.00), 2.50
M 15.10000 12 (2000.00, 6000.00, 0.00), (2000.00, 10.00), 2.50
M 15.10000 13 (6000.00, 6000.00, 0.00), (6000.00, 10.00), 2.50
M 15.10000 12 (2000.00, 6000.00, 0.00), (2000.00, 10.00), 2.50
M 15.10000 13 (6000.00, 6000.00, 0.00), (6000.00, 10.00), 2.50
M 15.10000 12 (2000.00, 6000.00, 0.00), (2000.00, 10.00), 2.50
M 15.10000 13 (6000.00, 6000.00, 0.00), (6000.00, 10.00), 2.50
M 15.10000 12 (2000.00, 6000.00, 0.00), (2000.00, 10.00), 2.50
M 15.10000 13 (6000.00, 6000.00, 0.00), (6000.00, 10.00), 2.50
M 15.10000 12 (2000.00, 6000.00, 0.00), (2000.00, 10.00), 2.50
M 15.10000 13 (6000.00, 6000.00, 0.00), (6000.00, 10.00), 2.50
M 15.10000 12 (2000.00, 6000.00, 0.00), (2000.00, 10.00), 2.50
M 15.10000 13 (6000.00, 6000.00, 0.00), (6000.00, 10.00), 2.50
s 121.026608356 _6_ MAC  --- 0 RTS 44 [f0c0 d 6 0] [energy 199809.197179 ei 21.761 es 0.000 et 162.257 er 6.784] 
M 15.10000 12 (2000.00, 6000.00, 0.00), (2000.00, 10.00), 2.50
M 15.10000 13 (6000.00, 6000.00, 0.00), (6000.00, 10.00), 2.50
r 122.014244815 _13_ MAC  --- 0 RTS 44 [f0c0 d 6 0] [energy 199944.853868 ei 22.060 es 0.000 et 22.109 er 10.977] 
s 122.114244815 _13_ MAC  --- 0 CTS 38 [b3e0 6 0 0] [energy 199944.853868 ei 22.060 es 0.000 et 22.109 er 10.977] 
M 15.10000 12 (2000.00, 6000.00, 0.00), (2000.00, 10.00), 2.50
M 15.10000 13 (6000.00, 6000.00, 0.00), (6000.00, 10.00), 2.50
s 123.030604726 _0_ MAC  --- 0 RTS 44 [f0c0 c 0 0] [energy 199809.308006 ei 22.289 es 0.000 et 162.257 er 6.146] 
r 123.052808827 _6_ MAC  --- 0 CTS 38 [b3e0 6 0 0] [energy 199803.923142 ei 22.118 es 0.000 et 167.063 er 6.896] 
s 123.152808827 _6_ MAC  --- 12 udp 352 [3ce0 d 6 800] [energy 199803.923142 ei 22.118 es 0.000 et 167.063 er 6.896] ------- [1:352 12:0 0 0] 
M 15.10000 12 (2000.00, 6000.00, 0.00), (2000.00, 10.00), 2.50
M 15.10000 13 (6000.00, 6000.00, 0.00), (6000.00, 10.00), 2.50
r 124.016267183 _12_ MAC  --- 0 RTS 44 [f0c0 c 0 0] [energy 199944.453463 ei 22.460 es 0.000 et 22.109 er 10.977] 
s 124.116267183 _12_ MAC  --- 0 CTS 38 [b3e0 0 0 0] [energy 199944.453463 ei 22.460 es 0.000 et 22.109 er 10.977] 
M 15.10000 12 (2000.00, 6000.00, 0.00), (2000.00, 10.00), 2.50
M 15.10000 13 (6000.00, 6000.00, 0.00), (6000.00, 10.00), 2.50
r 125.052863906 _0_ MAC  --- 0 CTS 38 [b3e0 0 0 0] [energy 199804.033958 ei 22.645 es 0.000 et 167.063 er 6.258] 
s 125.152863906 _0_ MAC  --- 10 udp 352 [3ce0 c 0 800] [energy 199804.033958 ei 22.645 es 0.000 et 167.063 er 6.258] ------- [1:352 10:0 0 0] 
s 125.877000827 _6_ MAC  --- 16 cbr 352 [3ce0 d 6 800] [energy 199725.177382 ei 22.138 es 0.000 et 245.789 er 6.896] ------- [2:352 16:0 0 0] [352] 0 0
M 15.10000 12 (2000.00, 6000.00, 0.00), (2000.00, 10.00), 2.50
M 15.10000 13 (6000.00, 6000.00, 0.00), (6000.00, 10.00), 2.50
M 15.10000 12 (2000.00, 6000.00, 0.00), (2000.00, 10.00), 2.50
M 15.10000 13 (6000.00, 6000.00, 0.00), (6000.00, 10.00), 2.50
s 127.877055906 _0_ MAC  --- 14 cbr 352 [3ce0 c 0 800] [energy 199725.288198 ei 22.665 es 0.000 et 245.789 er 6.258] ------- [2:352 14:0 0 0] [352] 0 0
M 15.10000 12 (2000.00, 6000.00, 0.00), (2000.00, 10.00), 2.50
M 15.10000 13 (6000.00, 6000.00, 0.00), (6000.00, 10.00), 2.50
M 15.10000 12 (2000.00, 6000.00, 0.00), (2000.00, 10.00), 2.50
M 15.10000 13 (6000.00, 6000.00, 0.00), (6000.00, 10.00), 2.50
r 129.323874660 _13_ MAC  --- 16 cbr 300 [3ce0 d 6 800] [energy 199935.849913 ei 22.450 es 0.000 et 25.475 er 16.226] ------- [2:300 16:0 0 0] [300] 1 0
s 129.423874660 _13_ MAC  --- 0 ACK 38 [0 6 0 0] [energy 199935.849913 ei 22.450 es 0.000 et 25.475 er 16.226] 
M 15.10000 12 (2000.00, 6000.00, 0.00), (2000.00, 10.00), 2.50
M 15.10000 13 (6000.00, 6000.00, 0.00), (6000.00, 10.00), 2.50
r 130.355298767 _6_ MAC  --- 0 ACK 38 [0 6 0 0] [energy 199645.971047 ei 22.506 es 0.000 et 324.515 er 7.008] 
M 15.10000 12 (2000.00, 6000.00, 0.00), (2000.00, 10.00), 2.50
M 15.10000 13 (6000.00, 6000.00, 0.00), (6000.00, 10.00), 2.50
r 131.321981013 _12_ MAC  --- 14 cbr 300 [3ce0 c 0 800] [energy 199935.450292 ei 22.849 es 0.000 et 25.475 er 16.226] ------- [2:300 14:0 0 0] [300] 1 0
s 131.421981013 _12_ MAC  --- 0 ACK 38 [0 0 0 0] [energy 199935.450292 ei 22.849 es 0.000 et 25.475 er 16.226] 
M 15.10000 12 (2000.00, 6000.00, 0.00), (2000.00, 10.00), 2.50
M 15.10000 13 (6000.00, 6000.00, 0.00), (6000.00, 10.00), 2.50
r 132.351474158 _0_ MAC  --- 0 ACK 38 [0 0 0 0] [energy 199646.082640 ei 23.033 es 0.000 et 324.515 er 6.370] 
M 15.10000 12 (2000.00, 6000.00, 0.00), (2000.00, 10.00), 2.50
M 15.10000 13 (6000.00, 6000.00, 0.00), (6000.00, 10.00), 2.50
M 15.10000 12 (2000.00, 6000.00, 0.00), (2000.00, 10.00), 2.50
M 15.10000 13 (6000.00, 6000.00, 0.00), (6000.00, 10.00), 2.50
M 15.10000 12 (2000.00, 6000.00, 0.00), (2000.00, 10.00), 2.50
M 15.10000 13 (6000.00, 6000.00, 0.00), (6000.00, 10.00), 2.50
M 15.10000 12 (2000.00, 6000.00, 0.00), (2000.00, 10.00), 2.50
M 15.10000 13 (6000.00, 6000.00, 0.00), (6000.00, 10.00), 2.50
M 15.10000 12 (2000.00, 6000.00, 0.00), (2000.00, 10.00), 2.50
M 15.10000 13 (6000.00, 6000.00, 0.00), (6000.00, 10.00), 2.50
M 15.10000 12 (2000.00, 6000.00, 0.00), (2000.00, 10.00), 2.50
M 15.10000 13 (6000.00, 6000.00, 0.00), (6000.00, 10.00), 2.50
M 15.10000 12 (2000.00, 6000.00, 0.00), (2000.00, 10.00), 2.50
M 15.10000 13 (6000.00, 6000.00, 0.00), (6000.00, 10.00), 2.50
M 15.10000 12 (2000.00, 6000.00, 0.00), (2000.00, 10.00), 2.50
M 15.10000 13 (6000.00, 6000.00, 0.00), (6000.00, 10.00), 2.50
M 15.10000 12 (2000.00, 6000.00, 0.00), (2000.00, 10.00), 2.50
M 15.10000 13 (6000.00, 6000.00, 0.00), (6000.00, 10.00), 2.50
M 15.10000 12 (2000.00, 6000.00, 0.00), (2000.00, 10.00), 2.50
M 15.10000 13 (6000.00, 6000.00, 0.00), (6000.00, 10.00), 2.50
M 15.10000 12 (2000.00, 6000.00, 0.00), (2000.00, 10.00), 2.50
M 15.10000 13 (6000.00, 6000.00, 0.00), (6000.00, 10.00), 2.50
M 15.10000 12 (2000.00, 6000.00, 0.00), (2000.00, 10.00), 2.50
M 15.10000 13 (6000.00, 6000.00, 0.00), (6000.00, 10.00), 2.50
M 15.10000 12 (2000.00, 6000.00, 0.00), (2000.00, 10.00), 2.50
M 15.10000 13 (6000.00, 6000.00, 0.00), (6000.00, 10.00), 2.50
M 15.10000 12 (2000.00, 6000.00, 0.00), (2000.00, 10.00), 2.50
M 15.10000 13 (6000.00, 6000.00, 0.00), (6000.00, 10.00), 2.50
M 15.10000 12 (2000.00, 6000.00, 0.00), (2000.00, 10.00), 2.50
M 15.10000 13 (6000.00, 6000.00, 0.00), (6000.00, 10.00), 2.50
M 15.10000 12 (2000.00, 6000.00, 0.00), (2000.00, 10.00), 2.50
M 15.10000 13 (6000.00, 6000.00, 0.00), (6000.00, 10.00), 2.50
M 15.10000 12 (2000.00, 6000.00, 0.00), (2000.00, 10.00), 2.50
M 15.10000 13 (6000.00, 6000.00, 0.00), (6000.00, 10.00), 2.50
M 15.10000 12 (2000.00, 6000.00, 0.00), (2000.00, 10.00), 2.50
M 15.10000 13 (6000.00, 6000.00, 0.00), (6000.00, 10.00), 2.50
M 15.10000 12 (2000.00, 6000.00, 0.00), (2000.00, 10.00), 2.50
M 15.10000 13 (6000.00, 6000.00, 0.00), (6000.00, 10.00), 2.50
M 15.10000 12 (2000.00, 6000.00, 0.00), (2000.00, 10.00), 2.50
M 15.10000 13 (6000.00, 6000.00, 0.00), (6000.00, 10.00), 2.50
s 152.363938059 _3_ MAC  --- 0 RTS 44 [f0c0 c 3 0] [energy 199796.080872 ei 26.232 es 0.000 et 162.257 er 15.429] 
M 15.10000 12 (2000.00, 6000.00, 0.00), (2000.00, 10.00), 2.50
M 15.10000 13 (6000.00, 6000.00, 0.00), (6000.00, 10.00), 2.50
r 153.321748455 _12_ MAC  --- 0 RTS 44 [f0c0 c 3 0] [energy 199927.578863 ei 27.195 es 0.000 et 28.840 er 16.386] 
s 153.421748455 _12_ MAC  --- 0 CTS 38 [b3e0 3 0 0] [energy 199927.578863 ei 27.195 es 0.000 et 28.840 er 16.386] 
M 15.10000 12 (2000.00, 6000.00, 0.00), (2000.00, 10.00), 2.50
M 15.10000 13 (6000.00, 6000.00, 0.00), (6000.00, 10.00), 2.50
r 154.330592316 _3_ MAC  --- 0 CTS 38 [b3e0 3 0 0] [energy 199790.751278 ei 26.644 es 0.000 et 167.063 er 15.542] 
s 154.430592316 _3_ MAC  --- 15 udp 352 [3ce0 c 3 800] [energy 199790.751278 ei 26.644 es 0.000 et 167.063 er 15.542] ------- [1:352 15:0 0 0] 
M 15.10000 12 (2000.00, 6000.00, 0.00), (2000.00, 10.00), 2.50
M 15.10000 13 (6000.00, 6000.00, 0.00), (6000.00, 10.00), 2.50
M 15.10000 12 (2000.00, 6000.00, 0.00), (2000.00, 10.00), 2.50
M 15.10000 13 (6000.00, 6000.00, 0.00), (6000.00, 10.00), 2.50
M 15.10000 12 (2000.00, 6000.00, 0.00), (2000.00, 10.00), 2.50
M 15.10000 13 (6000.00, 6000.00, 0.00), (6000.00, 10.00), 2.50
s 157.154784316 _3_ MAC  --- 19 cbr 352 [3ce0 c 3 800] [energy 199712.005518 ei 26.664 es 0.000 et 245.789 er 15.542] ------- [2:352 19:0 0 0] [352] 0 0
s 157.159941689 _9_ MAC  --- 0 RTS 44 [f0c0 d 9 0] [energy 199798.001638 ei 27.963 es 0.000 et 162.257 er 11.778] 
M 15.10000 12 (2000.00, 6000.00, 0.00), (2000.00, 10.00), 2.50
M 15.10000 13 (6000.00, 6000.00, 0.00), (6000.00, 10.00), 2.50
r 158.113391868 _13_ MAC  --- 0 RTS 44 [f0c0 d 9 0] [energy 199926.620534 ei 28.153 es 0.000 et 28.840 er 16.386] 
s 158.213391868 _13_ MAC  --- 0 CTS 38 [b3e0 9 0 0] [energy 199926.620534 ei 28.153 es 0.000 et 28.840 er 16.386] 
M 15.10000 12 (2000.00, 6000.00, 0.00), (2000.00, 10.00), 2.50
M 15.10000 13 (6000.00, 6000.00, 0.00), (6000.00, 10.00), 2.50
r 159.117891906 _9_ MAC  --- 0 CTS 38 [b3e0 9 0 0] [energy 199792.714585 ei 28.332 es 0.000 et 167.063 er 11.891] 
s 159.217891906 _9_ MAC  --- 17 udp 352 [3ce0 d 9 800] [energy 199792.714585 ei 28.332 es 0.000 et 167.063 er 11.891] ------- [1:352 17:0 0 0] 
M 15.10000 12 (2000.00, 6000.00, 0.00), (2000.00, 10.00), 2.50
M 15.10000 13 (6000.00, 6000.00, 0.00), (6000.00, 10.00), 2.50
r 160.572239153 _12_ MAC  --- 19 cbr 300 [3ce0 c 3 800] [energy 199918.586736 ei 27.573 es 0.000 et 32.206 er 21.634] ------- [2:300 19:0 0 0] [300] 1 0
s 160.672239153 _12_ MAC  --- 0 ACK 38 [0 3 0 0] [energy 199918.586736 ei 27.573 es 0.000 et 32.206 er 21.634] 
M 15.10000 12 (2000.00, 6000.00, 0.00), (2000.00, 10.00), 2.50
M 15.10000 13 (6000.00, 6000.00, 0.00), (6000.00, 10.00), 2.50
r 161.574532211 _3_ MAC  --- 0 ACK 38 [0 3 0 0] [energy 199632.810893 ei 27.021 es 0.000 et 324.515 er 15.654] 
s 161.942083906 _9_ MAC  --- 21 cbr 352 [3ce0 d 9 800] [energy 199713.968825 ei 28.352 es 0.000 et 245.789 er 11.891] ------- [2:352 21:0 0 0] [352] 0 0
M 15.10000 12 (2000.00, 6000.00, 0.00), (2000.00, 10.00), 2.50
M 15.10000 13 (6000.00, 6000.00, 0.00), (6000.00, 10.00), 2.50
M 15.10000 12 (2000.00, 6000.00, 0.00), (2000.00, 10.00), 2.50
M 15.10000 13 (6000.00, 6000.00, 0.00), (6000.00, 10.00), 2.50
M 15.10000 12 (2000.00, 6000.00, 0.00), (2000.00, 10.00), 2.50
M 15.10000 13 (6000.00, 6000.00, 0.00), (6000.00, 10.00), 2.50
M 15.10000 12 (2000.00, 6000.00, 0.00), (2000.00, 10.00), 2.50
M 15.10000 13 (6000.00, 6000.00, 0.00), (6000.00, 10.00), 2.50
r 165.355243111 _13_ MAC  --- 21 cbr 300 [3ce0 d 9 800] [energy 199917.630135 ei 28.529 es 0.000 et 32.206 er 21.634] ------- [2:300 21:0 0 0] [300] 1 0
s 165.455243111 _13_ MAC  --- 0 ACK 38 [0 9 0 0] [energy 199917.630135 ei 28.529 es 0.000 et 32.206 er 21.634] 
M 15.10000 12 (2000.00, 6000.00, 0.00), (2000.00, 10.00), 2.50
M 15.10000 13 (6000.00, 6000.00, 0.00), (6000.00, 10.00), 2.50
r 166.353286568 _9_ MAC  --- 0 ACK 38 [0 9 0 0] [energy 199634.775909 ei 28.707 es 0.000 et 324.515 er 12.003] 
M 15.10000 12 (2000.00, 6000.00, 0.00), (2000.00, 10.00), 2.50
M 15.10000 13 (6000.00, 6000.00, 0.00), (6000.00, 10.00), 2.50
M 15.10000 12 (2000.00, 6000.00, 0.00), (2000.00, 10.00), 2.50
M 15.10000 13 (6000.00, 6000.00, 0.00), (6000.00, 10.00), 2.50
M 15.10000 12 (2000.00, 6000.00, 0.00), (2000.00, 10.00), 2.50
M 15.10000 13 (6000.00, 6000.00, 0.00), (6000.00, 10.00), 2.50
M 15.10000 12 (2000.00, 6000.00, 0.00), (2000.00, 10.00), 2.50
M 15.10000 13 (6000.00, 6000.00, 0.00), (6000.00, 10.00), 2.50
M 15.10000 12 (2000.00, 6000.00, 0.00), (2000.00, 10.00), 2.50
M 15.10000 13 (6000.00, 6000.00, 0.00), (6000.00, 10.00), 2.50
M 15.10000 12 (2000.00, 6000.00, 0.00), (2000.00, 10.00), 2.50
M 15.10000 13 (6000.00, 6000.00, 0.00), (6000.00, 10.00), 2.50
M 15.10000 12 (2000.00, 6000.00, 0.00), (2000.00, 10.00), 2.50
M 15.10000 13 (6000.00, 6000.00, 0.00), (6000.00, 10.00), 2.50