n -t * -s 0  -x 1000 -y 5000 -Z 0 -z 1000  -v circle -c green
n -t * -s 1  -x 1000 -y 3000 -Z 0 -z 1000  -v circle -c green
n -t * -s 2  -x 1000 -y 1000 -Z 0 -z 1000  -v circle -c green
n -t * -s 3  -x 3000 -y 5000 -Z 0 -z 1000  -v circle -c green
n -t * -s 4  -x 3000 -y 3000 -Z 0 -z 1000  -v circle -c green
n -t * -s 5  -x 3000 -y 1000 -Z 0 -z 1000  -v circle -c green
n -t * -s 6  -x 5000 -y 5000 -Z 0 -z 1000  -v circle -c green
n -t * -s 7  -x 5000 -y 3000 -Z 0 -z 1000  -v circle -c green
n -t * -s 8  -x 5000 -y 1000 -Z 0 -z 1000  -v circle -c green
n -t * -s 9  -x 7000 -y 5000 -Z 0 -z 1000  -v circle -c green
n -t * -s 10  -x 7000 -y 3000 -Z 0 -z 1000  -v circle -c green
n -t * -s 11  -x 7000 -y 1000 -Z 0 -z 1000  -v circle -c green
n -t * -s 12  -x 2000 -y 6000 -Z 0 -z 1000  -v circle -c green
n -t * -s 13  -x 6000 -y 6000 -Z 0 -z 1000  -v circle -c green
V -t * -v 1.0a5 -a 0
W -t * -x 10000 -y 6000
A -t * -n 1 -p 0 -o 0xffffffff -c 31 -a 1
A -t * -h 1 -m 2147483647 -s 0
n -t 15.100000 -s 12 -x 2000.000000 -y 6000.000000 -U 0.000000 -V -2.500000 -T 2396.000000
n -t 15.100000 -s 13 -x 6000.000000 -y 6000.000000 -U 0.000000 -V -2.500000 -T 2396.000000
+ -t 20.100025000 -s 12 -d -1 -p audio -e 60 -c 2 -a 0 -i 1 -k MAC 
- -t 20.100025000 -s 12 -d -1 -p audio -e 60 -c 2 -a 0 -i 1 -k MAC
n -t 20.100025000 -s 12 -S COLOR -c red -o yellow
h -t 20.100025000 -s 12 -d -1 -p audio -e 60 -c 2 -a 0 -i 1 -k MAC -R 3000.000000
v -t 20.100025000 -e sim_annotation 20.100025000 1 node 12 sendout packet (audio) 1
n -t 21.325151986 -s 0 -S COLOR -c red -o yellow
r -t 21.325151986 -s 0 -d -1 -p audio -e 60 -c 2 -a 0 -i 1 -k MAC -R 3000.000000
v -t 21.325151986 -e sim_annotation 21.325151986 2 node 0 receive packet(audio) 1
n -t 21.325151986 -s 3 -S COLOR -c red -o yellow
r -t 21.325151986 -s 3 -d -1 -p audio -e 60 -c 2 -a 0 -i 1 -k MAC -R 3000.000000
v -t 21.325151986 -e sim_annotation 21.325151986 3 node 3 receive packet(audio) 1
+ -t 28.100025000 -s 13 -d -1 -p audio -e 60 -c 2 -a 0 -i 0 -k MAC 
- -t 28.100025000 -s 13 -d -1 -p audio -e 60 -c 2 -a 0 -i 0 -k MAC
n -t 28.100025000 -s 13 -S COLOR -c red -o yellow
h -t 28.100025000 -s 13 -d -1 -p audio -e 60 -c 2 -a 0 -i 0 -k MAC -R 3000.000000
v -t 28.100025000 -e sim_annotation 28.100025000 4 node 13 sendout packet (audio) 0
n -t 29.315831894 -s 6 -S COLOR -c red -o yellow
r -t 29.315831894 -s 6 -d -1 -p audio -e 60 -c 2 -a 0 -i 0 -k MAC -R 3000.000000
v -t 29.315831894 -e sim_annotation 29.315831894 5 node 6 receive packet(audio) 0
n -t 29.315831894 -s 9 -S COLOR -c red -o yellow
r -t 29.315831894 -s 9 -d -1 -p audio -e 60 -c 2 -a 0 -i 0 -k MAC -R 3000.000000
v -t 29.315831894 -e sim_annotation 29.315831894 6 node 9 receive packet(audio) 0
+ -t 221.600025000 -s 12 -d -1 -p audio -e 60 -c 2 -a 0 -i 7 -k MAC 
- -t 221.600025000 -s 12 -d -1 -p audio -e 60 -c 2 -a 0 -i 7 -k MAC
h -t 221.600025000 -s 12 -d -1 -p audio -e 60 -c 2 -a 0 -i 7 -k MAC -R 3000.000000
v -t 221.600025000 -e sim_annotation 221.600025000 7 node 12 sendout packet (audio) 7
r -t 222.628791552 -s 0 -d -1 -p audio -e 60 -c 2 -a 0 -i 7 -k MAC -R 3000.000000
v -t 222.628791552 -e sim_annotation 222.628791552 8 node 0 receive packet(audio) 7
r -t 222.628791552 -s 3 -d -1 -p audio -e 60 -c 2 -a 0 -i 7 -k MAC -R 3000.000000
v -t 222.628791552 -e sim_annotation 222.628791552 9 node 3 receive packet(audio) 7
n -t 223.673217934 -s 4 -S COLOR -c red -o yellow
r -t 223.673217934 -s 4 -d -1 -p audio -e 60 -c 2 -a 0 -i 7 -k MAC -R 3000.000000
v -t 223.673217934 -e sim_annotation 223.673217934 10 node 4 receive packet(audio) 7
+ -t 230.600025000 -s 13 -d -1 -p audio -e 60 -c 2 -a 0 -i 6 -k MAC 
- -t 230.600025000 -s 13 -d -1 -p audio -e 60 -c 2 -a 0 -i 6 -k MAC
h -t 230.600025000 -s 13 -d -1 -p audio -e 60 -c 2 -a 0 -i 6 -k MAC -R 3000.000000
v -t 230.600025000 -e sim_annotation 230.600025000 11 node 13 sendout packet (audio) 6
r -t 231.622383649 -s 6 -d -1 -p audio -e 60 -c 2 -a 0 -i 6 -k MAC -R 3000.000000
v -t 231.622383649 -e sim_annotation 231.622383649 12 node 6 receive packet(audio) 6
r -t 231.622383649 -s 9 -d -1 -p audio -e 60 -c 2 -a 0 -i 6 -k MAC -R 3000.000000
v -t 231.622383649 -e sim_annotation 231.622383649 13 node 9 receive packet(audio) 6
n -t 232.659312236 -s 10 -S COLOR -c red -o yellow
r -t 232.659312236 -s 10 -d -1 -p audio -e 60 -c 2 -a 0 -i 6 -k MAC -R 3000.000000
v -t 232.659312236 -e sim_annotation 232.659312236 14 node 10 receive packet(audio) 6
+ -t 363.758535319 -s 0 -d -1 -p RTS -e 44 -c 2 -a 0 -i 0 -k MAC 
- -t 363.758535319 -s 0 -d -1 -p RTS -e 44 -c 2 -a 0 -i 0 -k MAC
n -t 363.758535319 -s 0 -S COLOR -c red -o yellow
h -t 363.758535319 -s 0 -d -1 -p RTS -e 44 -c 2 -a 0 -i 0 -k MAC -R 3000.000000
v -t 363.758535319 -e sim_annotation 363.758535319 15 node 0 sendout packet (RTS) 0
n -t 364.590863106 -s 12 -S COLOR -c red -o yellow
r -t 364.590863106 -s 12 -d -1 -p RTS -e 44 -c 2 -a 0 -i 0 -k MAC -R 3000.000000
v -t 364.590863106 -e sim_annotation 364.590863106 16 node 12 receive packet(RTS) 0
+ -t 364.690863106 -s 12 -d -1 -p CTS -e 38 -c 2 -a 0 -i 0 -k MAC 
- -t 364.690863106 -s 12 -d -1 -p CTS -e 38 -c 2 -a 0 -i 0 -k MAC
h -t 364.690863106 -s 12 -d -1 -p CTS -e 38 -c 2 -a 0 -i 0 -k MAC -R 3000.000000
v -t 364.690863106 -e sim_annotation 364.690863106 17 node 12 sendout packet (CTS) 0
n -t 365.474994838 -s 0 -S COLOR -c red -o yellow
r -t 365.474994838 -s 0 -d -1 -p CTS -e 38 -c 2 -a 0 -i 0 -k MAC -R 3000.000000
v -t 365.474994838 -e sim_annotation 365.474994838 18 node 0 receive packet(CTS) 0
+ -t 365.574994838 -s 0 -d -1 -p udp -e 352 -c 2 -a 0 -i 2 -k MAC 
- -t 365.574994838 -s 0 -d -1 -p udp -e 352 -c 2 -a 0 -i 2 -k MAC
h -t 365.574994838 -s 0 -d -1 -p udp -e 352 -c 2 -a 0 -i 2 -k MAC -R 3000.000000
v -t 365.574994838 -e sim_annotation 365.574994838 19 node 0 sendout packet (udp) 2
+ -t 365.749215227 -s 9 -d -1 -p RTS -e 44 -c 2 -a 0 -i 0 -k MAC 
- -t 365.749215227 -s 9 -d -1 -p RTS -e 44 -c 2 -a 0 -i 0 -k MAC
n -t 365.749215227 -s 9 -S COLOR -c red -o yellow
h -t 365.749215227 -s 9 -d -1 -p RTS -e 44 -c 2 -a 0 -i 0 -k MAC -R 3000.000000
v -t 365.749215227 -e sim_annotation 365.749215227 20 node 9 sendout packet (RTS) 0
n -t 366.581128689 -s 13 -S COLOR -c red -o yellow
r -t 366.581128689 -s 13 -d -1 -p RTS -e 44 -c 2 -a 0 -i 0 -k MAC -R 3000.000000
v -t 366.581128689 -e sim_annotation 366.581128689 21 node 13 receive packet(RTS) 0
+ -t 366.681128689 -s 13 -d -1 -p CTS -e 38 -c 2 -a 0 -i 0 -k MAC 
- -t 366.681128689 -s 13 -d -1 -p CTS -e 38 -c 2 -a 0 -i 0 -k MAC
h -t 366.681128689 -s 13 -d -1 -p CTS -e 38 -c 2 -a 0 -i 0 -k MAC -R 3000.000000
v -t 366.681128689 -e sim_annotation 366.681128689 22 node 13 sendout packet (CTS) 0
n -t 367.464853734 -s 9 -S COLOR -c red -o yellow
r -t 367.464853734 -s 9 -d -1 -p CTS -e 38 -c 2 -a 0 -i 0 -k MAC -R 3000.000000
v -t 367.464853734 -e sim_annotation 367.464853734 23 node 9 receive packet(CTS) 0
+ -t 367.564853734 -s 9 -d -1 -p udp -e 352 -c 2 -a 0 -i 5 -k MAC 
- -t 367.564853734 -s 9 -d -1 -p udp -e 352 -c 2 -a 0 -i 5 -k MAC
h -t 367.564853734 -s 9 -d -1 -p udp -e 352 -c 2 -a 0 -i 5 -k MAC -R 3000.000000
v -t 367.564853734 -e sim_annotation 367.564853734 24 node 9 sendout packet (udp) 5
+ -t 368.299186838 -s 0 -d -1 -p cbr -e 352 -c 2 -a 0 -i 10 -k MAC 
- -t 368.299186838 -s 0 -d -1 -p cbr -e 352 -c 2 -a 0 -i 10 -k MAC
h -t 368.299186838 -s 0 -d -1 -p cbr -e 352 -c 2 -a 0 -i 10 -k MAC -R 3000.000000
v -t 368.299186838 -e sim_annotation 368.299186838 25 node 0 sendout packet (cbr) 10
n -t 368.870943917 -s 12 -S COLOR -c red -o yellow
r -t 368.870943917 -s 12 -d -1 -p udp -e 300 -c 2 -a 0 -i 2 -k MAC -R 3000.000000
v -t 368.870943917 -e sim_annotation 368.870943917 26 node 12 receive packet(udp) 2
+ -t 370.289045734 -s 9 -d -1 -p cbr -e 352 -c 2 -a 0 -i 13 -k MAC 
- -t 370.289045734 -s 9 -d -1 -p cbr -e 352 -c 2 -a 0 -i 13 -k MAC
h -t 370.289045734 -s 9 -d -1 -p cbr -e 352 -c 2 -a 0 -i 13 -k MAC -R 3000.000000
v -t 370.289045734 -e sim_annotation 370.289045734 27 node 9 sendout packet (cbr) 13
n -t 370.860403376 -s 13 -S COLOR -c red -o yellow
r -t 370.860403376 -s 13 -d -1 -p udp -e 300 -c 2 -a 0 -i 5 -k MAC -R 3000.000000
v -t 370.860403376 -e sim_annotation 370.860403376 28 node 13 receive packet(udp) 5
r -t 371.594593152 -s 12 -d -1 -p cbr -e 300 -c 2 -a 0 -i 10 -k MAC -R 3000.000000
v -t 371.594593152 -e sim_annotation 371.594593152 29 node 12 receive packet(cbr) 10
+ -t 371.694593152 -s 12 -d -1 -p ACK -e 38 -c 2 -a 0 -i 0 -k MAC 
- -t 371.694593152 -s 12 -d -1 -p ACK -e 38 -c 2 -a 0 -i 0 -k MAC
h -t 371.694593152 -s 12 -d -1 -p ACK -e 38 -c 2 -a 0 -i 0 -k MAC -R 3000.000000
v -t 371.694593152 -e sim_annotation 371.694593152 30 node 12 sendout packet (ACK) 0
r -t 372.477365393 -s 0 -d -1 -p ACK -e 38 -c 2 -a 0 -i 0 -k MAC -R 3000.000000
v -t 372.477365393 -e sim_annotation 372.477365393 31 node 0 receive packet(ACK) 0
r -t 373.584074735 -s 13 -d -1 -p cbr -e 300 -c 2 -a 0 -i 13 -k MAC -R 3000.000000
v -t 373.584074735 -e sim_annotation 373.584074735 32 node 13 receive packet(cbr) 13
+ -t 373.684074735 -s 13 -d -1 -p ACK -e 38 -c 2 -a 0 -i 0 -k MAC 
- -t 373.684074735 -s 13 -d -1 -p ACK -e 38 -c 2 -a 0 -i 0 -k MAC
h -t 373.684074735 -s 13 -d -1 -p ACK -e 38 -c 2 -a 0 -i 0 -k MAC -R 3000.000000
v -t 373.684074735 -e sim_annotation 373.684074735 33 node 13 sendout packet (ACK) 0
r -t 374.466497373 -s 9 -d -1 -p ACK -e 38 -c 2 -a 0 -i 0 -k MAC -R 3000.000000
v -t 374.466497373 -e sim_annotation 374.466497373 34 node 9 receive packet(ACK) 0
+ -t 382.066497373 -s 6 -d -1 -p RTS -e 44 -c 2 -a 0 -i 0 -k MAC 
- -t 382.066497373 -s 6 -d -1 -p RTS -e 44 -c 2 -a 0 -i 0 -k MAC
n -t 382.066497373 -s 6 -S COLOR -c red -o yellow
h -t 382.066497373 -s 6 -d -1 -p RTS -e 44 -c 2 -a 0 -i 0 -k MAC -R 3000.000000
v -t 382.066497373 -e sim_annotation 382.066497373 35 node 6 sendout packet (RTS) 0
r -t 382.895625536 -s 13 -d -1 -p RTS -e 44 -c 2 -a 0 -i 0 -k MAC -R 3000.000000
v -t 382.895625536 -e sim_annotation 382.895625536 36 node 13 receive packet(RTS) 0
+ -t 382.995625536 -s 13 -d -1 -p CTS -e 38 -c 2 -a 0 -i 0 -k MAC 
- -t 382.995625536 -s 13 -d -1 -p CTS -e 38 -c 2 -a 0 -i 0 -k MAC
h -t 382.995625536 -s 13 -d -1 -p CTS -e 38 -c 2 -a 0 -i 0 -k MAC -R 3000.000000
v -t 382.995625536 -e sim_annotation 382.995625536 37 node 13 sendout packet (CTS) 0
n -t 383.776628028 -s 6 -S COLOR -c red -o yellow
r -t 383.776628028 -s 6 -d -1 -p CTS -e 38 -c 2 -a 0 -i 0 -k MAC -R 3000.000000
v -t 383.776628028 -e sim_annotation 383.776628028 38 node 6 receive packet(CTS) 0
+ -t 383.876628028 -s 6 -d -1 -p udp -e 352 -c 2 -a 0 -i 4 -k MAC 
- -t 383.876628028 -s 6 -d -1 -p udp -e 352 -c 2 -a 0 -i 4 -k MAC
h -t 383.876628028 -s 6 -d -1 -p udp -e 352 -c 2 -a 0 -i 4 -k MAC -R 3000.000000
v -t 383.876628028 -e sim_annotation 383.876628028 39 node 6 sendout packet (udp) 4
+ -t 386.600820028 -s 6 -d -1 -p cbr -e 352 -c 2 -a 0 -i 12 -k MAC 
- -t 386.600820028 -s 6 -d -1 -p cbr -e 352 -c 2 -a 0 -i 12 -k MAC
h -t 386.600820028 -s 6 -d -1 -p cbr -e 352 -c 2 -a 0 -i 12 -k MAC -R 3000.000000
v -t 386.600820028 -e sim_annotation 386.600820028 40 node 6 sendout packet (cbr) 12
r -t 387.169514650 -s 13 -d -1 -p udp -e 300 -c 2 -a 0 -i 4 -k MAC -R 3000.000000
v -t 387.169514650 -e sim_annotation 387.169514650 41 node 13 receive packet(udp) 4
r -t 389.893368643 -s 13 -d -1 -p cbr -e 300 -c 2 -a 0 -i 12 -k MAC -R 3000.000000
v -t 389.893368643 -e sim_annotation 389.893368643 42 node 13 receive packet(cbr) 12
+ -t 389.993368643 -s 13 -d -1 -p ACK -e 38 -c 2 -a 0 -i 0 -k MAC 
- -t 389.993368643 -s 13 -d -1 -p ACK -e 38 -c 2 -a 0 -i 0 -k MAC
h -t 389.993368643 -s 13 -d -1 -p ACK -e 38 -c 2 -a 0 -i 0 -k MAC -R 3000.000000
v -t 389.993368643 -e sim_annotation 389.993368643 43 node 13 sendout packet (ACK) 0
r -t 390.773539233 -s 6 -d -1 -p ACK -e 38 -c 2 -a 0 -i 0 -k MAC -R 3000.000000
v -t 390.773539233 -e sim_annotation 390.773539233 44 node 6 receive packet(ACK) 0
+ -t 416.600025000 -s 12 -d -1 -p audio -e 60 -c 2 -a 0 -i 15 -k MAC 
- -t 416.600025000 -s 12 -d -1 -p audio -e 60 -c 2 -a 0 -i 15 -k MAC
h -t 416.600025000 -s 12 -d -1 -p audio -e 60 -c 2 -a 0 -i 15 -k MAC -R 3000.000000
v -t 416.600025000 -e sim_annotation 416.600025000 45 node 12 sendout packet (audio) 15
r -t 417.554888354 -s 0 -d -1 -p audio -e 60 -c 2 -a 0 -i 15 -k MAC -R 3000.000000
v -t 417.554888354 -e sim_annotation 417.554888354 46 node 0 receive packet(audio) 15
r -t 417.554888354 -s 3 -d -1 -p audio -e 60 -c 2 -a 0 -i 15 -k MAC -R 3000.000000
v -t 417.554888354 -e sim_annotation 417.554888354 47 node 3 receive packet(audio) 15
n -t 418.376693300 -s 1 -S COLOR -c red -o yellow
r -t 418.376693300 -s 1 -d -1 -p audio -e 60 -c 2 -a 0 -i 15 -k MAC -R 3000.000000
v -t 418.376693300 -e sim_annotation 418.376693300 48 node 1 receive packet(audio) 15
r -t 418.376693300 -s 4 -d -1 -p audio -e 60 -c 2 -a 0 -i 15 -k MAC -R 3000.000000
v -t 418.376693300 -e sim_annotation 418.376693300 49 node 4 receive packet(audio) 15
+ -t 425.600025000 -s 13 -d -1 -p audio -e 60 -c 2 -a 0 -i 14 -k MAC 
- -t 425.600025000 -s 13 -d -1 -p audio -e 60 -c 2 -a 0 -i 14 -k MAC
h -t 425.600025000 -s 13 -d -1 -p audio -e 60 -c 2 -a 0 -i 14 -k MAC -R 3000.000000
v -t 425.600025000 -e sim_annotation 425.600025000 50 node 13 sendout packet (audio) 14
r -t 426.555113316 -s 6 -d -1 -p audio -e 60 -c 2 -a 0 -i 14 -k MAC -R 3000.000000
v -t 426.555113316 -e sim_annotation 426.555113316 51 node 6 receive packet(audio) 14
r -t 426.555113316 -s 9 -d -1 -p audio -e 60 -c 2 -a 0 -i 14 -k MAC -R 3000.000000
v -t 426.555113316 -e sim_annotation 426.555113316 52 node 9 receive packet(audio) 14
n -t 427.363297234 -s 7 -S COLOR -c red -o yellow
r -t 427.363297234 -s 7 -d -1 -p audio -e 60 -c 2 -a 0 -i 14 -k MAC -R 3000.000000
v -t 427.363297234 -e sim_annotation 427.363297234 53 node 7 receive packet(audio) 14
r -t 427.363297234 -s 10 -d -1 -p audio -e 60 -c 2 -a 0 -i 14 -k MAC -R 3000.000000
v -t 427.363297234 -e sim_annotation 427.363297234 54 node 10 receive packet(audio) 14
+ -t 563.606601267 -s 4 -d -1 -p RTS -e 44 -c 2 -a 0 -i 0 -k MAC 
- -t 563.606601267 -s 4 -d -1 -p RTS -e 44 -c 2 -a 0 -i 0 -k MAC
n -t 563.606601267 -s 4 -S COLOR -c red -o yellow
h -t 563.606601267 -s 4 -d -1 -p RTS -e 44 -c 2 -a 0 -i 0 -k MAC -R 3000.000000
v -t 563.606601267 -e sim_annotation 563.606601267 55 node 4 sendout packet (RTS) 0
r -t 565.040941838 -s 12 -d -1 -p RTS -e 44 -c 2 -a 0 -i 0 -k MAC -R 3000.000000
v -t 565.040941838 -e sim_annotation 565.040941838 56 node 12 receive packet(RTS) 0
+ -t 565.140941838 -s 12 -d -1 -p CTS -e 38 -c 2 -a 0 -i 0 -k MAC 
- -t 565.140941838 -s 12 -d -1 -p CTS -e 38 -c 2 -a 0 -i 0 -k MAC
h -t 565.140941838 -s 12 -d -1 -p CTS -e 38 -c 2 -a 0 -i 0 -k MAC -R 3000.000000
v -t 565.140941838 -e sim_annotation 565.140941838 57 node 12 sendout packet (CTS) 0
n -t 566.525103851 -s 4 -S COLOR -c red -o yellow
r -t 566.525103851 -s 4 -d -1 -p CTS -e 38 -c 2 -a 0 -i 0 -k MAC -R 3000.000000
v -t 566.525103851 -e sim_annotation 566.525103851 58 node 4 receive packet(CTS) 0
+ -t 566.625103851 -s 4 -d -1 -p udp -e 352 -c 2 -a 0 -i 8 -k MAC 
- -t 566.625103851 -s 4 -d -1 -p udp -e 352 -c 2 -a 0 -i 8 -k MAC
h -t 566.625103851 -s 4 -d -1 -p udp -e 352 -c 2 -a 0 -i 8 -k MAC -R 3000.000000
v -t 566.625103851 -e sim_annotation 566.625103851 59 node 4 sendout packet (udp) 8
+ -t 569.349295851 -s 4 -d -1 -p cbr -e 352 -c 2 -a 0 -i 18 -k MAC 
- -t 569.349295851 -s 4 -d -1 -p cbr -e 352 -c 2 -a 0 -i 18 -k MAC
h -t 569.349295851 -s 4 -d -1 -p cbr -e 352 -c 2 -a 0 -i 18 -k MAC -R 3000.000000
v -t 569.349295851 -e sim_annotation 569.349295851 60 node 4 sendout packet (cbr) 18
r -t 570.519159898 -s 12 -d -1 -p udp -e 300 -c 2 -a 0 -i 8 -k MAC -R 3000.000000
v -t 570.519159898 -e sim_annotation 570.519159898 61 node 12 receive packet(udp) 8
r -t 573.239489839 -s 12 -d -1 -p cbr -e 300 -c 2 -a 0 -i 18 -k MAC -R 3000.000000
v -t 573.239489839 -e sim_annotation 573.239489839 62 node 12 receive packet(cbr) 18
+ -t 573.339489839 -s 12 -d -1 -p ACK -e 38 -c 2 -a 0 -i 0 -k MAC 
- -t 573.339489839 -s 12 -d -1 -p ACK -e 38 -c 2 -a 0 -i 0 -k MAC
h -t 573.339489839 -s 12 -d -1 -p ACK -e 38 -c 2 -a 0 -i 0 -k MAC -R 3000.000000
v -t 573.339489839 -e sim_annotation 573.339489839 63 node 12 sendout packet (ACK) 0
r -t 574.712035132 -s 4 -d -1 -p ACK -e 38 -c 2 -a 0 -i 0 -k MAC -R 3000.000000
v -t 574.712035132 -e sim_annotation 574.712035132 64 node 4 receive packet(ACK) 0
+ -t 575.592695569 -s 10 -d -1 -p RTS -e 44 -c 2 -a 0 -i 0 -k MAC 
- -t 575.592695569 -s 10 -d -1 -p RTS -e 44 -c 2 -a 0 -i 0 -k MAC
n -t 575.592695569 -s 10 -S COLOR -c red -o yellow
h -t 575.592695569 -s 10 -d -1 -p RTS -e 44 -c 2 -a 0 -i 0 -k MAC -R 3000.000000
v -t 575.592695569 -e sim_annotation 575.592695569 65 node 10 sendout packet (RTS) 0
r -t 577.010055454 -s 13 -d -1 -p RTS -e 44 -c 2 -a 0 -i 0 -k MAC -R 3000.000000
v -t 577.010055454 -e sim_annotation 577.010055454 66 node 13 receive packet(RTS) 0
+ -t 577.110055454 -s 13 -d -1 -p CTS -e 38 -c 2 -a 0 -i 0 -k MAC 
- -t 577.110055454 -s 13 -d -1 -p CTS -e 38 -c 2 -a 0 -i 0 -k MAC
h -t 577.110055454 -s 13 -d -1 -p CTS -e 38 -c 2 -a 0 -i 0 -k MAC -R 3000.000000
v -t 577.110055454 -e sim_annotation 577.110055454 67 node 13 sendout packet (CTS) 0
n -t 578.477271988 -s 10 -S COLOR -c red -o yellow
r -t 578.477271988 -s 10 -d -1 -p CTS -e 38 -c 2 -a 0 -i 0 -k MAC -R 3000.000000
v -t 578.477271988 -e sim_annotation 578.477271988 68 node 10 receive packet(CTS) 0
+ -t 578.577271988 -s 10 -d -1 -p udp -e 352 -c 2 -a 0 -i 9 -k MAC 
- -t 578.577271988 -s 10 -d -1 -p udp -e 352 -c 2 -a 0 -i 9 -k MAC
h -t 578.577271988 -s 10 -d -1 -p udp -e 352 -c 2 -a 0 -i 9 -k MAC -R 3000.000000
v -t 578.577271988 -e sim_annotation 578.577271988 69 node 10 sendout packet (udp) 9
+ -t 581.301463988 -s 10 -d -1 -p cbr -e 352 -c 2 -a 0 -i 19 -k MAC 
- -t 581.301463988 -s 10 -d -1 -p cbr -e 352 -c 2 -a 0 -i 19 -k MAC
h -t 581.301463988 -s 10 -d -1 -p cbr -e 352 -c 2 -a 0 -i 19 -k MAC -R 3000.000000
v -t 581.301463988 -e sim_annotation 581.301463988 70 node 10 sendout packet (cbr) 19
r -t 582.454417370 -s 13 -d -1 -p udp -e 300 -c 2 -a 0 -i 9 -k MAC -R 3000.000000
v -t 582.454417370 -e sim_annotation 582.454417370 71 node 13 receive packet(udp) 9
r -t 585.174767433 -s 13 -d -1 -p cbr -e 300 -c 2 -a 0 -i 19 -k MAC -R 3000.000000
v -t 585.174767433 -e sim_annotation 585.174767433 72 node 13 receive packet(cbr) 19
+ -t 585.274767433 -s 13 -d -1 -p ACK -e 38 -c 2 -a 0 -i 0 -k MAC 
- -t 585.274767433 -s 13 -d -1 -p ACK -e 38 -c 2 -a 0 -i 0 -k MAC
h -t 585.274767433 -s 13 -d -1 -p ACK -e 38 -c 2 -a 0 -i 0 -k MAC -R 3000.000000
v -t 585.274767433 -e sim_annotation 585.274767433 73 node 13 sendout packet (ACK) 0
r -t 586.630475755 -s 10 -d -1 -p ACK -e 38 -c 2 -a 0 -i 0 -k MAC -R 3000.000000
v -t 586.630475755 -e sim_annotation 586.630475755 74 node 10 receive packet(ACK) 0
+ -t 618.600025000 -s 13 -d -1 -p audio -e 60 -c 2 -a 0 -i 20 -k MAC 
- -t 618.600025000 -s 13 -d -1 -p audio -e 60 -c 2 -a 0 -i 20 -k MAC
h -t 618.600025000 -s 13 -d -1 -p audio -e 60 -c 2 -a 0 -i 20 -k MAC -R 3000.000000
v -t 618.600025000 -e sim_annotation 618.600025000 75 node 13 sendout packet (audio) 20
r -t 619.636199955 -s 6 -d -1 -p audio -e 60 -c 2 -a 0 -i 20 -k MAC -R 3000.000000
v -t 619.636199955 -e sim_annotation 619.636199955 76 node 6 receive packet(audio) 20
r -t 619.636199955 -s 9 -d -1 -p audio -e 60 -c 2 -a 0 -i 20 -k MAC -R 3000.000000
v -t 619.636199955 -e sim_annotation 619.636199955 77 node 9 receive packet(audio) 20
r -t 620.085218137 -s 7 -d -1 -p audio -e 60 -c 2 -a 0 -i 20 -k MAC -R 3000.000000
v -t 620.085218137 -e sim_annotation 620.085218137 78 node 7 receive packet(audio) 20
r -t 620.085218137 -s 10 -d -1 -p audio -e 60 -c 2 -a 0 -i 20 -k MAC -R 3000.000000
v -t 620.085218137 -e sim_annotation 620.085218137 79 node 10 receive packet(audio) 20
+ -t 626.600025000 -s 12 -d -1 -p audio -e 60 -c 2 -a 0 -i 21 -k MAC 
- -t 626.600025000 -s 12 -d -1 -p audio -e 60 -c 2 -a 0 -i 21 -k MAC
h -t 626.600025000 -s 12 -d -1 -p audio -e 60 -c 2 -a 0 -i 21 -k MAC -R 3000.000000
v -t 626.600025000 -e sim_annotation 626.600025000 80 node 12 sendout packet (audio) 21
r -t 627.642339486 -s 0 -d -1 -p audio -e 60 -c 2 -a 0 -i 21 -k MAC -R 3000.000000
v -t 627.642339486 -e sim_annotation 627.642339486 81 node 0 receive packet(audio) 21
r -t 627.642339486 -s 3 -d -1 -p audio -e 60 -c 2 -a 0 -i 21 -k MAC -R 3000.000000
v -t 627.642339486 -e sim_annotation 627.642339486 82 node 3 receive packet(audio) 21
r -t 628.074167417 -s 1 -d -1 -p audio -e 60 -c 2 -a 0 -i 21 -k MAC -R 3000.000000
v -t 628.074167417 -e sim_annotation 628.074167417 83 node 1 receive packet(audio) 21
r -t 628.074167417 -s 4 -d -1 -p audio -e 60 -c 2 -a 0 -i 21 -k MAC -R 3000.000000
v -t 628.074167417 -e sim_annotation 628.074167417 84 node 4 receive packet(audio) 21
+ -t 689.591868652 -s 3 -d -1 -p RTS -e 44 -c 2 -a 0 -i 0 -k MAC 
- -t 689.591868652 -s 3 -d -1 -p RTS -e 44 -c 2 -a 0 -i 0 -k MAC
n -t 689.591868652 -s 3 -S COLOR -c red -o yellow
h -t 689.591868652 -s 3 -d -1 -p RTS -e 44 -c 2 -a 0 -i 0 -k MAC -R 3000.000000
v -t 689.591868652 -e sim_annotation 689.591868652 85 node 3 sendout packet (RTS) 0
r -t 690.560601495 -s 12 -d -1 -p RTS -e 44 -c 2 -a 0 -i 0 -k MAC -R 3000.000000
v -t 690.560601495 -e sim_annotation 690.560601495 86 node 12 receive packet(RTS) 0
+ -t 690.660601495 -s 12 -d -1 -p CTS -e 38 -c 2 -a 0 -i 0 -k MAC 
- -t 690.660601495 -s 12 -d -1 -p CTS -e 38 -c 2 -a 0 -i 0 -k MAC
h -t 690.660601495 -s 12 -d -1 -p CTS -e 38 -c 2 -a 0 -i 0 -k MAC -R 3000.000000
v -t 690.660601495 -e sim_annotation 690.660601495 87 node 12 sendout packet (CTS) 0
n -t 691.582343516 -s 3 -S COLOR -c red -o yellow
r -t 691.582343516 -s 3 -d -1 -p CTS -e 38 -c 2 -a 0 -i 0 -k MAC -R 3000.000000
v -t 691.582343516 -e sim_annotation 691.582343516 88 node 3 receive packet(CTS) 0
+ -t 691.682343516 -s 3 -d -1 -p udp -e 352 -c 2 -a 0 -i 11 -k MAC 
- -t 691.682343516 -s 3 -d -1 -p udp -e 352 -c 2 -a 0 -i 11 -k MAC
h -t 691.682343516 -s 3 -d -1 -p udp -e 352 -c 2 -a 0 -i 11 -k MAC -R 3000.000000
v -t 691.682343516 -e sim_annotation 691.682343516 89 node 3 sendout packet (udp) 11
+ -t 694.406535516 -s 3 -d -1 -p cbr -e 352 -c 2 -a 0 -i 23 -k MAC 
- -t 694.406535516 -s 3 -d -1 -p cbr -e 352 -c 2 -a 0 -i 23 -k MAC
h -t 694.406535516 -s 3 -d -1 -p cbr -e 352 -c 2 -a 0 -i 23 -k MAC -R 3000.000000
v -t 694.406535516 -e sim_annotation 694.406535516 90 node 3 sendout packet (cbr) 23
r -t 695.117052828 -s 12 -d -1 -p udp -e 300 -c 2 -a 0 -i 11 -k MAC -R 3000.000000
v -t 695.117052828 -e sim_annotation 695.117052828 91 node 12 receive packet(udp) 11
r -t 697.843835649 -s 12 -d -1 -p cbr -e 300 -c 2 -a 0 -i 23 -k MAC -R 3000.000000
v -t 697.843835649 -e sim_annotation 697.843835649 92 node 12 receive packet(cbr) 23
+ -t 697.943835649 -s 12 -d -1 -p ACK -e 38 -c 2 -a 0 -i 0 -k MAC 
- -t 697.943835649 -s 12 -d -1 -p ACK -e 38 -c 2 -a 0 -i 0 -k MAC
h -t 697.943835649 -s 12 -d -1 -p ACK -e 38 -c 2 -a 0 -i 0 -k MAC -R 3000.000000
v -t 697.943835649 -e sim_annotation 697.943835649 93 node 12 sendout packet (ACK) 0
r -t 698.872525310 -s 3 -d -1 -p ACK -e 38 -c 2 -a 0 -i 0 -k MAC -R 3000.000000
v -t 698.872525310 -e sim_annotation 698.872525310 94 node 3 receive packet(ACK) 0
+ -t 753.810076633 -s 1 -d -1 -p RTS -e 44 -c 2 -a 0 -i 0 -k MAC 
- -t 753.810076633 -s 1 -d -1 -p RTS -e 44 -c 2 -a 0 -i 0 -k MAC
n -t 753.810076633 -s 1 -S COLOR -c red -o yellow
h -t 753.810076633 -s 1 -d -1 -p RTS -e 44 -c 2 -a 0 -i 0 -k MAC -R 3000.000000
v -t 753.810076633 -e sim_annotation 753.810076633 95 node 1 sendout packet (RTS) 0
r -t 754.987875293 -s 12 -d -1 -p RTS -e 44 -c 2 -a 0 -i 0 -k MAC -R 3000.000000
v -t 754.987875293 -e sim_annotation 754.987875293 96 node 12 receive packet(RTS) 0
+ -t 755.087875293 -s 12 -d -1 -p CTS -e 38 -c 2 -a 0 -i 0 -k MAC 
- -t 755.087875293 -s 12 -d -1 -p CTS -e 38 -c 2 -a 0 -i 0 -k MAC
h -t 755.087875293 -s 12 -d -1 -p CTS -e 38 -c 2 -a 0 -i 0 -k MAC -R 3000.000000
v -t 755.087875293 -e sim_annotation 755.087875293 97 node 12 sendout packet (CTS) 0
n -t 756.216065919 -s 1 -S COLOR -c red -o yellow
r -t 756.216065919 -s 1 -d -1 -p CTS -e 38 -c 2 -a 0 -i 0 -k MAC -R 3000.000000
v -t 756.216065919 -e sim_annotation 756.216065919 98 node 1 receive packet(CTS) 0
+ -t 756.316065919 -s 1 -d -1 -p udp -e 352 -c 2 -a 0 -i 16 -k MAC 
- -t 756.316065919 -s 1 -d -1 -p udp -e 352 -c 2 -a 0 -i 16 -k MAC
h -t 756.316065919 -s 1 -d -1 -p udp -e 352 -c 2 -a 0 -i 16 -k MAC -R 3000.000000
v -t 756.316065919 -e sim_annotation 756.316065919 99 node 1 sendout packet (udp) 16
+ -t 759.040257919 -s 1 -d -1 -p cbr -e 352 -c 2 -a 0 -i 26 -k MAC 
- -t 759.040257919 -s 1 -d -1 -p cbr -e 352 -c 2 -a 0 -i 26 -k MAC
h -t 759.040257919 -s 1 -d -1 -p cbr -e 352 -c 2 -a 0 -i 26 -k MAC -R 3000.000000
v -t 759.040257919 -e sim_annotation 759.040257919 100 node 1 sendout packet (cbr) 26
r -t 759.954712751 -s 12 -d -1 -p udp -e 300 -c 2 -a 0 -i 16 -k MAC -R 3000.000000
v -t 759.954712751 -e sim_annotation 759.954712751 101 node 12 receive packet(udp) 16
r -t 762.675486912 -s 12 -d -1 -p cbr -e 300 -c 2 -a 0 -i 26 -k MAC -R 3000.000000
v -t 762.675486912 -e sim_annotation 762.675486912 102 node 12 receive packet(cbr) 26
+ -t 762.775486912 -s 12 -d -1 -p ACK -e 38 -c 2 -a 0 -i 0 -k MAC 
- -t 762.775486912 -s 12 -d -1 -p ACK -e 38 -c 2 -a 0 -i 0 -k MAC
h -t 762.775486912 -s 12 -d -1 -p ACK -e 38 -c 2 -a 0 -i 0 -k MAC -R 3000.000000
v -t 762.775486912 -e sim_annotation 762.775486912 103 node 12 sendout packet (ACK) 0
r -t 763.894044023 -s 1 -d -1 -p ACK -e 38 -c 2 -a 0 -i 0 -k MAC -R 3000.000000
v -t 763.894044023 -e sim_annotation 763.894044023 104 node 1 receive packet(ACK) 0
+ -t 764.296680567 -s 7 -d -1 -p RTS -e 44 -c 2 -a 0 -i 0 -k MAC 
- -t 764.296680567 -s 7 -d -1 -p RTS -e 44 -c 2 -a 0 -i 0 -k MAC
n -t 764.296680567 -s 7 -S COLOR -c red -o yellow
h -t 764.296680567 -s 7 -d -1 -p RTS -e 44 -c 2 -a 0 -i 0 -k MAC -R 3000.000000
v -t 764.296680567 -e sim_annotation 764.296680567 105 node 7 sendout packet (RTS) 0
r -t 765.461339857 -s 13 -d -1 -p RTS -e 44 -c 2 -a 0 -i 0 -k MAC -R 3000.000000
v -t 765.461339857 -e sim_annotation 765.461339857 106 node 13 receive packet(RTS) 0
+ -t 765.561339857 -s 13 -d -1 -p CTS -e 38 -c 2 -a 0 -i 0 -k MAC 
- -t 765.561339857 -s 13 -d -1 -p CTS -e 38 -c 2 -a 0 -i 0 -k MAC
h -t 765.561339857 -s 13 -d -1 -p CTS -e 38 -c 2 -a 0 -i 0 -k MAC -R 3000.000000
v -t 765.561339857 -e sim_annotation 765.561339857 107 node 13 sendout packet (CTS) 0
n -t 766.676423519 -s 7 -S COLOR -c red -o yellow
r -t 766.676423519 -s 7 -d -1 -p CTS -e 38 -c 2 -a 0 -i 0 -k MAC -R 3000.000000
v -t 766.676423519 -e sim_annotation 766.676423519 108 node 7 receive packet(CTS) 0
+ -t 766.776423519 -s 7 -d -1 -p udp -e 352 -c 2 -a 0 -i 17 -k MAC 
- -t 766.776423519 -s 7 -d -1 -p udp -e 352 -c 2 -a 0 -i 17 -k MAC
h -t 766.776423519 -s 7 -d -1 -p udp -e 352 -c 2 -a 0 -i 17 -k MAC -R 3000.000000
v -t 766.776423519 -e sim_annotation 766.776423519 109 node 7 sendout packet (udp) 17
+ -t 769.500615519 -s 7 -d -1 -p cbr -e 352 -c 2 -a 0 -i 27 -k MAC 
- -t 769.500615519 -s 7 -d -1 -p cbr -e 352 -c 2 -a 0 -i 27 -k MAC
h -t 769.500615519 -s 7 -d -1 -p cbr -e 352 -c 2 -a 0 -i 27 -k MAC -R 3000.000000
v -t 769.500615519 -e sim_annotation 769.500615519 110 node 7 sendout packet (cbr) 27
r -t 770.401995163 -s 13 -d -1 -p udp -e 300 -c 2 -a 0 -i 17 -k MAC -R 3000.000000
v -t 770.401995163 -e sim_annotation 770.401995163 111 node 13 receive packet(udp) 17
r -t 773.122803861 -s 13 -d -1 -p cbr -e 300 -c 2 -a 0 -i 27 -k MAC -R 3000.000000
v -t 773.122803861 -e sim_annotation 773.122803861 112 node 13 receive packet(cbr) 27
+ -t 773.222803861 -s 13 -d -1 -p ACK -e 38 -c 2 -a 0 -i 0 -k MAC 
- -t 773.222803861 -s 13 -d -1 -p ACK -e 38 -c 2 -a 0 -i 0 -k MAC
h -t 773.222803861 -s 13 -d -1 -p ACK -e 38 -c 2 -a 0 -i 0 -k MAC -R 3000.000000
v -t 773.222803861 -e sim_annotation 773.222803861 113 node 13 sendout packet (ACK) 0
r -t 774.328384361 -s 7 -d -1 -p ACK -e 38 -c 2 -a 0 -i 0 -k MAC -R 3000.000000
v -t 774.328384361 -e sim_annotation 774.328384361 114 node 7 receive packet(ACK) 0
+ -t 822.100025000 -s 12 -d -1 -p audio -e 60 -c 2 -a 0 -i 29 -k MAC 
- -t 822.100025000 -s 12 -d -1 -p audio -e 60 -c 2 -a 0 -i 29 -k MAC
h -t 822.100025000 -s 12 -d -1 -p audio -e 60 -c 2 -a 0 -i 29 -k MAC -R 3000.000000
v -t 822.100025000 -e sim_annotation 822.100025000 115 node 12 sendout packet (audio) 29
r -t 823.322812843 -s 1 -d -1 -p audio -e 60 -c 2 -a 0 -i 29 -k MAC -R 3000.000000
v -t 823.322812843 -e sim_annotation 823.322812843 116 node 1 receive packet(audio) 29
r -t 823.322812843 -s 4 -d -1 -p audio -e 60 -c 2 -a 0 -i 29 -k MAC -R 3000.000000
v -t 823.322812843 -e sim_annotation 823.322812843 117 node 4 receive packet(audio) 29
r -t 823.339311429 -s 0 -d -1 -p audio -e 60 -c 2 -a 0 -i 29 -k MAC -R 3000.000000
v -t 823.339311429 -e sim_annotation 823.339311429 118 node 0 receive packet(audio) 29
r -t 823.339311429 -s 3 -d -1 -p audio -e 60 -c 2 -a 0 -i 29 -k MAC -R 3000.000000
v -t 823.339311429 -e sim_annotation 823.339311429 119 node 3 receive packet(audio) 29
+ -t 830.100025000 -s 13 -d -1 -p audio -e 60 -c 2 -a 0 -i 28 -k MAC 
- -t 830.100025000 -s 13 -d -1 -p audio -e 60 -c 2 -a 0 -i 28 -k MAC
h -t 830.100025000 -s 13 -d -1 -p audio -e 60 -c 2 -a 0 -i 28 -k MAC -R 3000.000000
v -t 830.100025000 -e sim_annotation 830.100025000 120 node 13 sendout packet (audio) 28
r -t 831.313517223 -s 7 -d -1 -p audio -e 60 -c 2 -a 0 -i 28 -k MAC -R 3000.000000
v -t 831.313517223 -e sim_annotation 831.313517223 121 node 7 receive packet(audio) 28
r -t 831.313517223 -s 10 -d -1 -p audio -e 60 -c 2 -a 0 -i 28 -k MAC -R 3000.000000
v -t 831.313517223 -e sim_annotation 831.313517223 122 node 10 receive packet(audio) 28
r -t 831.348866405 -s 6 -d -1 -p audio -e 60 -c 2 -a 0 -i 28 -k MAC -R 3000.000000
v -t 831.348866405 -e sim_annotation 831.348866405 123 node 6 receive packet(audio) 28
r -t 831.348866405 -s 9 -d -1 -p audio -e 60 -c 2 -a 0 -i 28 -k MAC -R 3000.000000