n -t * -s 0  -x 1000 -y 5000 -Z 0 -z 1000  -v circle -c green
n -t * -s 1  -x 1000 -y 3000 -Z 0 -z 1000  -v circle -c green
n -t * -s 2  -x 1000 -y 1000 -Z 0 -z 1000  -v circle -c green
n -t * -s 3  -x 3000 -y 5000 -Z 0 -z 1000  -v circle -c green
n -t * -s 4  -x 3000 -y 3000 -Z 0 -z 1000  -v circle -c green
n -t * -s 5  -x 3000 -y 1000 -Z 0 -z 1000  -v circle -c green
n -t * -s 6  -x 5000 -y 5000 -Z 0 -z 1000  -v circle -c green
n -t * -s 7  -x 5000 -y 3000 -Z 0 -z 1000  -v circle -c green
n -t * -s 8  -x 5000 -y 1000 -Z 0 -z 1000  -v circle -c green
n -t * -s 9  -x 7000 -y 5000 -Z 0 -z 1000  -v circle -c green
n -t * -s 10  -x 7000 -y 3000 -Z 0 -z 1000  -v circle -c green
n -t * -s 11  -x 7000 -y 1000 -Z 0 -z 1000  -v circle -c green
n -t * -s 12  -x 2000 -y 6000 -Z 0 -z 1000  -v circle -c green
n -t * -s 13  -x 6000 -y 6000 -Z 0 -z 1000  -v circle -c green
V -t * -v 1.0a5 -a 0
W -t * -x 10000 -y 6000
A -t * -n 1 -p 0 -o 0xffffffff -c 31 -a 1
A -t * -h 1 -m 2147483647 -s 0
n -t 15.100000 -s 12 -x 2000.000000 -y 6000.000000 -U 0.000000 -V -2.500000 -T 2396.000000
n -t 15.100000 -s 13 -x 6000.000000 -y 6000.000000 -U 0.000000 -V -2.500000 -T 2396.000000
+ -t 15.500025000 -s 12 -d -1 -p audio -e 60 -c 2 -a 0 -i 1 -k MAC 
- -t 15.500025000 -s 12 -d -1 -p audio -e 60 -c 2 -a 0 -i 1 -k MAC
n -t 15.500025000 -s 12 -S COLOR -c red -o yellow
h -t 15.500025000 -s 12 -d -1 -p audio -e 60 -c 2 -a 0 -i 1 -k MAC -R 3000.000000
v -t 15.500025000 -e sim_annotation 15.500025000 1 node 12 sendout packet (audio) 1
n -t 16.730554726 -s 0 -S COLOR -c red -o yellow
r -t 16.730554726 -s 0 -d -1 -p audio -e 60 -c 2 -a 0 -i 1 -k MAC -R 3000.000000
v -t 16.730554726 -e sim_annotation 16.730554726 2 node 0 receive packet(audio) 1
n -t 16.730554726 -s 3 -S COLOR -c red -o yellow
r -t 16.730554726 -s 3 -d -1 -p audio -e 60 -c 2 -a 0 -i 1 -k MAC -R 3000.000000
v -t 16.730554726 -e sim_annotation 16.730554726 3 node 3 receive packet(audio) 1
+ -t 18.900025000 -s 13 -d -1 -p audio -e 60 -c 2 -a 0 -i 0 -k MAC 
- -t 18.900025000 -s 13 -d -1 -p audio -e 60 -c 2 -a 0 -i 0 -k MAC
n -t 18.900025000 -s 13 -S COLOR -c red -o yellow
h -t 18.900025000 -s 13 -d -1 -p audio -e 60 -c 2 -a 0 -i 0 -k MAC -R 3000.000000
v -t 18.900025000 -e sim_annotation 18.900025000 4 node 13 sendout packet (audio) 0
n -t 20.126558356 -s 6 -S COLOR -c red -o yellow
r -t 20.126558356 -s 6 -d -1 -p audio -e 60 -c 2 -a 0 -i 0 -k MAC -R 3000.000000
v -t 20.126558356 -e sim_annotation 20.126558356 5 node 6 receive packet(audio) 0
n -t 20.126558356 -s 9 -S COLOR -c red -o yellow
r -t 20.126558356 -s 9 -d -1 -p audio -e 60 -c 2 -a 0 -i 0 -k MAC -R 3000.000000
v -t 20.126558356 -e sim_annotation 20.126558356 6 node 9 receive packet(audio) 0
+ -t 53.563938059 -s 0 -d -1 -p RTS -e 44 -c 2 -a 0 -i 0 -k MAC 
- -t 53.563938059 -s 0 -d -1 -p RTS -e 44 -c 2 -a 0 -i 0 -k MAC
n -t 53.563938059 -s 0 -S COLOR -c red -o yellow
h -t 53.563938059 -s 0 -d -1 -p RTS -e 44 -c 2 -a 0 -i 0 -k MAC -R 3000.000000
v -t 53.563938059 -e sim_annotation 53.563938059 7 node 0 sendout packet (RTS) 0
n -t 54.622752962 -s 12 -S COLOR -c red -o yellow
r -t 54.622752962 -s 12 -d -1 -p RTS -e 44 -c 2 -a 0 -i 0 -k MAC -R 3000.000000
v -t 54.622752962 -e sim_annotation 54.622752962 8 node 12 receive packet(RTS) 0
+ -t 54.722752962 -s 12 -d -1 -p CTS -e 38 -c 2 -a 0 -i 0 -k MAC 
- -t 54.722752962 -s 12 -d -1 -p CTS -e 38 -c 2 -a 0 -i 0 -k MAC
h -t 54.722752962 -s 12 -d -1 -p CTS -e 38 -c 2 -a 0 -i 0 -k MAC -R 3000.000000
v -t 54.722752962 -e sim_annotation 54.722752962 9 node 12 sendout packet (CTS) 0
+ -t 54.959941689 -s 6 -d -1 -p RTS -e 44 -c 2 -a 0 -i 0 -k MAC 
- -t 54.959941689 -s 6 -d -1 -p RTS -e 44 -c 2 -a 0 -i 0 -k MAC
n -t 54.959941689 -s 6 -S COLOR -c red -o yellow
h -t 54.959941689 -s 6 -d -1 -p RTS -e 44 -c 2 -a 0 -i 0 -k MAC -R 3000.000000
v -t 54.959941689 -e sim_annotation 54.959941689 10 node 6 sendout packet (RTS) 0
n -t 55.732273962 -s 0 -S COLOR -c red -o yellow
r -t 55.732273962 -s 0 -d -1 -p CTS -e 38 -c 2 -a 0 -i 0 -k MAC -R 3000.000000
v -t 55.732273962 -e sim_annotation 55.732273962 11 node 0 receive packet(CTS) 0
+ -t 55.832273962 -s 0 -d -1 -p udp -e 352 -c 2 -a 0 -i 2 -k MAC 
- -t 55.832273962 -s 0 -d -1 -p udp -e 352 -c 2 -a 0 -i 2 -k MAC
h -t 55.832273962 -s 0 -d -1 -p udp -e 352 -c 2 -a 0 -i 2 -k MAC -R 3000.000000
v -t 55.832273962 -e sim_annotation 55.832273962 12 node 0 sendout packet (udp) 2
n -t 56.017198133 -s 13 -S COLOR -c red -o yellow
r -t 56.017198133 -s 13 -d -1 -p RTS -e 44 -c 2 -a 0 -i 0 -k MAC -R 3000.000000
v -t 56.017198133 -e sim_annotation 56.017198133 13 node 13 receive packet(RTS) 0
+ -t 56.117198133 -s 13 -d -1 -p CTS -e 38 -c 2 -a 0 -i 0 -k MAC 
- -t 56.117198133 -s 13 -d -1 -p CTS -e 38 -c 2 -a 0 -i 0 -k MAC
h -t 56.117198133 -s 13 -d -1 -p CTS -e 38 -c 2 -a 0 -i 0 -k MAC -R 3000.000000
v -t 56.117198133 -e sim_annotation 56.117198133 14 node 13 sendout packet (CTS) 0
n -t 57.125165173 -s 6 -S COLOR -c red -o yellow
r -t 57.125165173 -s 6 -d -1 -p CTS -e 38 -c 2 -a 0 -i 0 -k MAC -R 3000.000000
v -t 57.125165173 -e sim_annotation 57.125165173 15 node 6 receive packet(CTS) 0
+ -t 57.225165173 -s 6 -d -1 -p udp -e 352 -c 2 -a 0 -i 4 -k MAC 
- -t 57.225165173 -s 6 -d -1 -p udp -e 352 -c 2 -a 0 -i 4 -k MAC
h -t 57.225165173 -s 6 -d -1 -p udp -e 352 -c 2 -a 0 -i 4 -k MAC -R 3000.000000
v -t 57.225165173 -e sim_annotation 57.225165173 16 node 6 sendout packet (udp) 4
+ -t 58.556465962 -s 0 -d -1 -p cbr -e 352 -c 2 -a 0 -i 6 -k MAC 
- -t 58.556465962 -s 0 -d -1 -p cbr -e 352 -c 2 -a 0 -i 6 -k MAC
h -t 58.556465962 -s 0 -d -1 -p cbr -e 352 -c 2 -a 0 -i 6 -k MAC -R 3000.000000
v -t 58.556465962 -e sim_annotation 58.556465962 17 node 0 sendout packet (cbr) 6
+ -t 59.949357173 -s 6 -d -1 -p cbr -e 352 -c 2 -a 0 -i 8 -k MAC 
- -t 59.949357173 -s 6 -d -1 -p cbr -e 352 -c 2 -a 0 -i 8 -k MAC
h -t 59.949357173 -s 6 -d -1 -p cbr -e 352 -c 2 -a 0 -i 8 -k MAC -R 3000.000000
v -t 59.949357173 -e sim_annotation 59.949357173 18 node 6 sendout packet (cbr) 8
n -t 62.073722741 -s 12 -S COLOR -c red -o yellow
r -t 62.073722741 -s 12 -d -1 -p cbr -e 300 -c 2 -a 0 -i 6 -k MAC -R 3000.000000
v -t 62.073722741 -e sim_annotation 62.073722741 19 node 12 receive packet(cbr) 6
+ -t 62.173722741 -s 12 -d -1 -p ACK -e 38 -c 2 -a 0 -i 0 -k MAC 
- -t 62.173722741 -s 12 -d -1 -p ACK -e 38 -c 2 -a 0 -i 0 -k MAC
h -t 62.173722741 -s 12 -d -1 -p ACK -e 38 -c 2 -a 0 -i 0 -k MAC -R 3000.000000
v -t 62.173722741 -e sim_annotation 62.173722741 20 node 12 sendout packet (ACK) 0
r -t 63.174979413 -s 0 -d -1 -p ACK -e 38 -c 2 -a 0 -i 0 -k MAC -R 3000.000000
v -t 63.174979413 -e sim_annotation 63.174979413 21 node 0 receive packet(ACK) 0
n -t 63.465070935 -s 13 -S COLOR -c red -o yellow
r -t 63.465070935 -s 13 -d -1 -p cbr -e 300 -c 2 -a 0 -i 8 -k MAC -R 3000.000000
v -t 63.465070935 -e sim_annotation 63.465070935 22 node 13 receive packet(cbr) 8
+ -t 63.565070935 -s 13 -d -1 -p ACK -e 38 -c 2 -a 0 -i 0 -k MAC 
- -t 63.565070935 -s 13 -d -1 -p ACK -e 38 -c 2 -a 0 -i 0 -k MAC
h -t 63.565070935 -s 13 -d -1 -p ACK -e 38 -c 2 -a 0 -i 0 -k MAC -R 3000.000000
v -t 63.565070935 -e sim_annotation 63.565070935 23 node 13 sendout packet (ACK) 0
r -t 64.564795104 -s 6 -d -1 -p ACK -e 38 -c 2 -a 0 -i 0 -k MAC -R 3000.000000
v -t 64.564795104 -e sim_annotation 64.564795104 24 node 6 receive packet(ACK) 0
+ -t 88.693275023 -s 9 -d -1 -p RTS -e 44 -c 2 -a 0 -i 0 -k MAC 
- -t 88.693275023 -s 9 -d -1 -p RTS -e 44 -c 2 -a 0 -i 0 -k MAC
n -t 88.693275023 -s 9 -S COLOR -c red -o yellow
h -t 88.693275023 -s 9 -d -1 -p RTS -e 44 -c 2 -a 0 -i 0 -k MAC -R 3000.000000
v -t 88.693275023 -e sim_annotation 88.693275023 25 node 9 sendout packet (RTS) 0
+ -t 89.297271392 -s 3 -d -1 -p RTS -e 44 -c 2 -a 0 -i 0 -k MAC 
- -t 89.297271392 -s 3 -d -1 -p RTS -e 44 -c 2 -a 0 -i 0 -k MAC
n -t 89.297271392 -s 3 -S COLOR -c red -o yellow
h -t 89.297271392 -s 3 -d -1 -p RTS -e 44 -c 2 -a 0 -i 0 -k MAC -R 3000.000000
v -t 89.297271392 -e sim_annotation 89.297271392 26 node 3 sendout packet (RTS) 0
r -t 89.713927736 -s 13 -d -1 -p RTS -e 44 -c 2 -a 0 -i 0 -k MAC -R 3000.000000
v -t 89.713927736 -e sim_annotation 89.713927736 27 node 13 receive packet(RTS) 0
+ -t 89.813927736 -s 13 -d -1 -p CTS -e 38 -c 2 -a 0 -i 0 -k MAC 
- -t 89.813927736 -s 13 -d -1 -p CTS -e 38 -c 2 -a 0 -i 0 -k MAC
h -t 89.813927736 -s 13 -d -1 -p CTS -e 38 -c 2 -a 0 -i 0 -k MAC -R 3000.000000
v -t 89.813927736 -e sim_annotation 89.813927736 28 node 13 sendout packet (CTS) 0
r -t 90.317288016 -s 12 -d -1 -p RTS -e 44 -c 2 -a 0 -i 0 -k MAC -R 3000.000000
v -t 90.317288016 -e sim_annotation 90.317288016 29 node 12 receive packet(RTS) 0
+ -t 90.417288016 -s 12 -d -1 -p CTS -e 38 -c 2 -a 0 -i 0 -k MAC 
- -t 90.417288016 -s 12 -d -1 -p CTS -e 38 -c 2 -a 0 -i 0 -k MAC
h -t 90.417288016 -s 12 -d -1 -p CTS -e 38 -c 2 -a 0 -i 0 -k MAC -R 3000.000000
v -t 90.417288016 -e sim_annotation 90.417288016 30 node 12 sendout packet (CTS) 0
n -t 90.785400813 -s 9 -S COLOR -c red -o yellow
r -t 90.785400813 -s 9 -d -1 -p CTS -e 38 -c 2 -a 0 -i 0 -k MAC -R 3000.000000
v -t 90.785400813 -e sim_annotation 90.785400813 31 node 9 receive packet(CTS) 0
+ -t 90.885400813 -s 9 -d -1 -p udp -e 352 -c 2 -a 0 -i 5 -k MAC 
- -t 90.885400813 -s 9 -d -1 -p udp -e 352 -c 2 -a 0 -i 5 -k MAC
h -t 90.885400813 -s 9 -d -1 -p udp -e 352 -c 2 -a 0 -i 5 -k MAC -R 3000.000000
v -t 90.885400813 -e sim_annotation 90.885400813 32 node 9 sendout packet (udp) 5
n -t 91.388126987 -s 3 -S COLOR -c red -o yellow
r -t 91.388126987 -s 3 -d -1 -p CTS -e 38 -c 2 -a 0 -i 0 -k MAC -R 3000.000000
v -t 91.388126987 -e sim_annotation 91.388126987 33 node 3 receive packet(CTS) 0
+ -t 91.488126987 -s 3 -d -1 -p udp -e 352 -c 2 -a 0 -i 7 -k MAC 
- -t 91.488126987 -s 3 -d -1 -p udp -e 352 -c 2 -a 0 -i 7 -k MAC
h -t 91.488126987 -s 3 -d -1 -p udp -e 352 -c 2 -a 0 -i 7 -k MAC -R 3000.000000
v -t 91.488126987 -e sim_annotation 91.488126987 34 node 3 sendout packet (udp) 7
+ -t 93.609592813 -s 9 -d -1 -p cbr -e 352 -c 2 -a 0 -i 13 -k MAC 
- -t 93.609592813 -s 9 -d -1 -p cbr -e 352 -c 2 -a 0 -i 13 -k MAC
h -t 93.609592813 -s 9 -d -1 -p cbr -e 352 -c 2 -a 0 -i 13 -k MAC -R 3000.000000
v -t 93.609592813 -e sim_annotation 93.609592813 35 node 9 sendout packet (cbr) 13
+ -t 94.212318987 -s 3 -d -1 -p cbr -e 352 -c 2 -a 0 -i 11 -k MAC 
- -t 94.212318987 -s 3 -d -1 -p cbr -e 352 -c 2 -a 0 -i 11 -k MAC
h -t 94.212318987 -s 3 -d -1 -p cbr -e 352 -c 2 -a 0 -i 11 -k MAC -R 3000.000000
v -t 94.212318987 -e sim_annotation 94.212318987 36 node 3 sendout packet (cbr) 11
r -t 97.089088661 -s 13 -d -1 -p cbr -e 300 -c 2 -a 0 -i 13 -k MAC -R 3000.000000
v -t 97.089088661 -e sim_annotation 97.089088661 37 node 13 receive packet(cbr) 13
+ -t 97.189088661 -s 13 -d -1 -p ACK -e 38 -c 2 -a 0 -i 0 -k MAC 
- -t 97.189088661 -s 13 -d -1 -p ACK -e 38 -c 2 -a 0 -i 0 -k MAC
h -t 97.189088661 -s 13 -d -1 -p ACK -e 38 -c 2 -a 0 -i 0 -k MAC -R 3000.000000
v -t 97.189088661 -e sim_annotation 97.189088661 38 node 13 sendout packet (ACK) 0
r -t 97.691185882 -s 12 -d -1 -p cbr -e 300 -c 2 -a 0 -i 11 -k MAC -R 3000.000000
v -t 97.691185882 -e sim_annotation 97.691185882 39 node 12 receive packet(cbr) 11
+ -t 97.791185882 -s 12 -d -1 -p ACK -e 38 -c 2 -a 0 -i 0 -k MAC 
- -t 97.791185882 -s 12 -d -1 -p ACK -e 38 -c 2 -a 0 -i 0 -k MAC
h -t 97.791185882 -s 12 -d -1 -p ACK -e 38 -c 2 -a 0 -i 0 -k MAC -R 3000.000000
v -t 97.791185882 -e sim_annotation 97.791185882 40 node 12 sendout packet (ACK) 0
r -t 98.152859827 -s 9 -d -1 -p ACK -e 38 -c 2 -a 0 -i 0 -k MAC -R 3000.000000
v -t 98.152859827 -e sim_annotation 98.152859827 41 node 9 receive packet(ACK) 0
r -t 98.754333038 -s 3 -d -1 -p ACK -e 38 -c 2 -a 0 -i 0 -k MAC -R 3000.000000
v -t 98.754333038 -e sim_annotation 98.754333038 42 node 3 receive packet(ACK) 0
+ -t 121.026608356 -s 6 -d -1 -p RTS -e 44 -c 2 -a 0 -i 0 -k MAC 
- -t 121.026608356 -s 6 -d -1 -p RTS -e 44 -c 2 -a 0 -i 0 -k MAC
h -t 121.026608356 -s 6 -d -1 -p RTS -e 44 -c 2 -a 0 -i 0 -k MAC -R 3000.000000
v -t 121.026608356 -e sim_annotation 121.026608356 43 node 6 sendout packet (RTS) 0
r -t 122.014244815 -s 13 -d -1 -p RTS -e 44 -c 2 -a 0 -i 0 -k MAC -R 3000.000000
v -t 122.014244815 -e sim_annotation 122.014244815 44 node 13 receive packet(RTS) 0
+ -t 122.114244815 -s 13 -d -1 -p CTS -e 38 -c 2 -a 0 -i 0 -k MAC 
- -t 122.114244815 -s 13 -d -1 -p CTS -e 38 -c 2 -a 0 -i 0 -k MAC
h -t 122.114244815 -s 13 -d -1 -p CTS -e 38 -c 2 -a 0 -i 0 -k MAC -R 3000.000000
v -t 122.114244815 -e sim_annotation 122.114244815 45 node 13 sendout packet (CTS) 0
+ -t 123.030604726 -s 0 -d -1 -p RTS -e 44 -c 2 -a 0 -i 0 -k MAC 
- -t 123.030604726 -s 0 -d -1 -p RTS -e 44 -c 2 -a 0 -i 0 -k MAC
h -t 123.030604726 -s 0 -d -1 -p RTS -e 44 -c 2 -a 0 -i 0 -k MAC -R 3000.000000
v -t 123.030604726 -e sim_annotation 123.030604726 46 node 0 sendout packet (RTS) 0
r -t 123.052808827 -s 6 -d -1 -p CTS -e 38 -c 2 -a 0 -i 0 -k MAC -R 3000.000000
v -t 123.052808827 -e sim_annotation 123.052808827 47 node 6 receive packet(CTS) 0
+ -t 123.152808827 -s 6 -d -1 -p udp -e 352 -c 2 -a 0 -i 12 -k MAC 
- -t 123.152808827 -s 6 -d -1 -p udp -e 352 -c 2 -a 0 -i 12 -k MAC
h -t 123.152808827 -s 6 -d -1 -p udp -e 352 -c 2 -a 0 -i 12 -k MAC -R 3000.000000
v -t 123.152808827 -e sim_annotation 123.152808827 48 node 6 sendout packet (udp) 12
r -t 124.016267183 -s 12 -d -1 -p RTS -e 44 -c 2 -a 0 -i 0 -k MAC -R 3000.000000
v -t 124.016267183 -e sim_annotation 124.016267183 49 node 12 receive packet(RTS) 0
+ -t 124.116267183 -s 12 -d -1 -p CTS -e 38 -c 2 -a 0 -i 0 -k MAC 
- -t 124.116267183 -s 12 -d -1 -p CTS -e 38 -c 2 -a 0 -i 0 -k MAC
h -t 124.116267183 -s 12 -d -1 -p CTS -e 38 -c 2 -a 0 -i 0 -k MAC -R 3000.000000
v -t 124.116267183 -e sim_annotation 124.116267183 50 node 12 sendout packet (CTS) 0
r -t 125.052863906 -s 0 -d -1 -p CTS -e 38 -c 2 -a 0 -i 0 -k MAC -R 3000.000000
v -t 125.052863906 -e sim_annotation 125.052863906 51 node 0 receive packet(CTS) 0
+ -t 125.152863906 -s 0 -d -1 -p udp -e 352 -c 2 -a 0 -i 10 -k MAC 
- -t 125.152863906 -s 0 -d -1 -p udp -e 352 -c 2 -a 0 -i 10 -k MAC
h -t 125.152863906 -s 0 -d -1 -p udp -e 352 -c 2 -a 0 -i 10 -k MAC -R 3000.000000
v -t 125.152863906 -e sim_annotation 125.152863906 52 node 0 sendout packet (udp) 10
+ -t 125.877000827 -s 6 -d -1 -p cbr -e 352 -c 2 -a 0 -i 16 -k MAC 
- -t 125.877000827 -s 6 -d -1 -p cbr -e 352 -c 2 -a 0 -i 16 -k MAC
h -t 125.877000827 -s 6 -d -1 -p cbr -e 352 -c 2 -a 0 -i 16 -k MAC -R 3000.000000
v -t 125.877000827 -e sim_annotation 125.877000827 53 node 6 sendout packet (cbr) 16
+ -t 127.877055906 -s 0 -d -1 -p cbr -e 352 -c 2 -a 0 -i 14 -k MAC 
- -t 127.877055906 -s 0 -d -1 -p cbr -e 352 -c 2 -a 0 -i 14 -k MAC
h -t 127.877055906 -s 0 -d -1 -p cbr -e 352 -c 2 -a 0 -i 14 -k MAC -R 3000.000000
v -t 127.877055906 -e sim_annotation 127.877055906 54 node 0 sendout packet (cbr) 14
r -t 129.323874660 -s 13 -d -1 -p cbr -e 300 -c 2 -a 0 -i 16 -k MAC -R 3000.000000
v -t 129.323874660 -e sim_annotation 129.323874660 55 node 13 receive packet(cbr) 16
+ -t 129.423874660 -s 13 -d -1 -p ACK -e 38 -c 2 -a 0 -i 0 -k MAC 
- -t 129.423874660 -s 13 -d -1 -p ACK -e 38 -c 2 -a 0 -i 0 -k MAC
h -t 129.423874660 -s 13 -d -1 -p ACK -e 38 -c 2 -a 0 -i 0 -k MAC -R 3000.000000
v -t 129.423874660 -e sim_annotation 129.423874660 56 node 13 sendout packet (ACK) 0
r -t 130.355298767 -s 6 -d -1 -p ACK -e 38 -c 2 -a 0 -i 0 -k MAC -R 3000.000000
v -t 130.355298767 -e sim_annotation 130.355298767 57 node 6 receive packet(ACK) 0
r -t 131.321981013 -s 12 -d -1 -p cbr -e 300 -c 2 -a 0 -i 14 -k MAC -R 3000.000000
v -t 131.321981013 -e sim_annotation 131.321981013 58 node 12 receive packet(cbr) 14
+ -t 131.421981013 -s 12 -d -1 -p ACK -e 38 -c 2 -a 0 -i 0 -k MAC 
- -t 131.421981013 -s 12 -d -1 -p ACK -e 38 -c 2 -a 0 -i 0 -k MAC
h -t 131.421981013 -s 12 -d -1 -p ACK -e 38 -c 2 -a 0 -i 0 -k MAC -R 3000.000000
v -t 131.421981013 -e sim_annotation 131.421981013 59 node 12 sendout packet (ACK) 0
r -t 132.351474158 -s 0 -d -1 -p ACK -e 38 -c 2 -a 0 -i 0 -k MAC -R 3000.000000
v -t 132.351474158 -e sim_annotation 132.351474158 60 node 0 receive packet(ACK) 0
+ -t 152.363938059 -s 3 -d -1 -p RTS -e 44 -c 2 -a 0 -i 0 -k MAC 
- -t 152.363938059 -s 3 -d -1 -p RTS -e 44 -c 2 -a 0 -i 0 -k MAC
h -t 152.363938059 -s 3 -d -1 -p RTS -e 44 -c 2 -a 0 -i 0 -k MAC -R 3000.000000
v -t 152.363938059 -e sim_annotation 152.363938059 61 node 3 sendout packet (RTS) 0
r -t 153.321748455 -s 12 -d -1 -p RTS -e 44 -c 2 -a 0 -i 0 -k MAC -R 3000.000000
v -t 153.321748455 -e sim_annotation 153.321748455 62 node 12 receive packet(RTS) 0
+ -t 153.421748455 -s 12 -d -1 -p CTS -e 38 -c 2 -a 0 -i 0 -k MAC 
- -t 153.421748455 -s 12 -d -1 -p CTS -e 38 -c 2 -a 0 -i 0 -k MAC
h -t 153.421748455 -s 12 -d -1 -p CTS -e 38 -c 2 -a 0 -i 0 -k MAC -R 3000.000000
v -t 153.421748455 -e sim_annotation 153.421748455 63 node 12 sendout packet (CTS) 0
r -t 154.330592316 -s 3 -d -1 -p CTS -e 38 -c 2 -a 0 -i 0 -k MAC -R 3000.000000
v -t 154.330592316 -e sim_annotation 154.330592316 64 node 3 receive packet(CTS) 0
+ -t 154.430592316 -s 3 -d -1 -p udp -e 352 -c 2 -a 0 -i 15 -k MAC 
- -t 154.430592316 -s 3 -d -1 -p udp -e 352 -c 2 -a 0 -i 15 -k MAC
h -t 154.430592316 -s 3 -d -1 -p udp -e 352 -c 2 -a 0 -i 15 -k MAC -R 3000.000000
v -t 154.430592316 -e sim_annotation 154.430592316 65 node 3 sendout packet (udp) 15
+ -t 157.154784316 -s 3 -d -1 -p cbr -e 352 -c 2 -a 0 -i 19 -k MAC 
- -t 157.154784316 -s 3 -d -1 -p cbr -e 352 -c 2 -a 0 -i 19 -k MAC
h -t 157.154784316 -s 3 -d -1 -p cbr -e 352 -c 2 -a 0 -i 19 -k MAC -R 3000.000000
v -t 157.154784316 -e sim_annotation 157.154784316 66 node 3 sendout packet (cbr) 19
+ -t 157.159941689 -s 9 -d -1 -p RTS -e 44 -c 2 -a 0 -i 0 -k MAC 
- -t 157.159941689 -s 9 -d -1 -p RTS -e 44 -c 2 -a 0 -i 0 -k MAC
h -t 157.159941689 -s 9 -d -1 -p RTS -e 44 -c 2 -a 0 -i 0 -k MAC -R 3000.000000
v -t 157.159941689 -e sim_annotation 157.159941689 67 node 9 sendout packet (RTS) 0
r -t 158.113391868 -s 13 -d -1 -p RTS -e 44 -c 2 -a 0 -i 0 -k MAC -R 3000.000000
v -t 158.113391868 -e sim_annotation 158.113391868 68 node 13 receive packet(RTS) 0
+ -t 158.213391868 -s 13 -d -1 -p CTS -e 38 -c 2 -a 0 -i 0 -k MAC 
- -t 158.213391868 -s 13 -d -1 -p CTS -e 38 -c 2 -a 0 -i 0 -k MAC
h -t 158.213391868 -s 13 -d -1 -p CTS -e 38 -c 2 -a 0 -i 0 -k MAC -R 3000.000000
v -t 158.213391868 -e sim_annotation 158.213391868 69 node 13 sendout packet (CTS) 0
r -t 159.117891906 -s 9 -d -1 -p CTS -e 38 -c 2 -a 0 -i 0 -k MAC -R 3000.000000
v -t 159.117891906 -e sim_annotation 159.117891906 70 node 9 receive packet(CTS) 0
+ -t 159.217891906 -s 9 -d -1 -p udp -e 352 -c 2 -a 0 -i 17 -k MAC 
- -t 159.217891906 -s 9 -d -1 -p udp -e 352 -c 2 -a 0 -i 17 -k MAC
h -t 159.217891906 -s 9 -d -1 -p udp -e 352 -c 2 -a 0 -i 17 -k MAC -R 3000.000000
v -t 159.217891906 -e sim_annotation 159.217891906 71 node 9 sendout packet (udp) 17
r -t 160.572239153 -s 12 -d -1 -p cbr -e 300 -c 2 -a 0 -i 19 -k MAC -R 3000.000000
v -t 160.572239153 -e sim_annotation 160.572239153 72 node 12 receive packet(cbr) 19
+ -t 160.672239153 -s 12 -d -1 -p ACK -e 38 -c 2 -a 0 -i 0 -k MAC 
- -t 160.672239153 -s 12 -d -1 -p ACK -e 38 -c 2 -a 0 -i 0 -k MAC
h -t 160.672239153 -s 12 -d -1 -p ACK -e 38 -c 2 -a 0 -i 0 -k MAC -R 3000.000000
v -t 160.672239153 -e sim_annotation 160.672239153 73 node 12 sendout packet (ACK) 0
r -t 161.574532211 -s 3 -d -1 -p ACK -e 38 -c 2 -a 0 -i 0 -k MAC -R 3000.000000
v -t 161.574532211 -e sim_annotation 161.574532211 74 node 3 receive packet(ACK) 0
+ -t 161.942083906 -s 9 -d -1 -p cbr -e 352 -c 2 -a 0 -i 21 -k MAC 
- -t 161.942083906 -s 9 -d -1 -p cbr -e 352 -c 2 -a 0 -i 21 -k MAC
h -t 161.942083906 -s 9 -d -1 -p cbr -e 352 -c 2 -a 0 -i 21 -k MAC -R 3000.000000
v -t 161.942083906 -e sim_annotation 161.942083906 75 node 9 sendout packet (cbr) 21
r -t 165.355243111 -s 13 -d -1 -p cbr -e 300 -c 2 -a 0 -i 21 -k MAC -R 3000.000000
v -t 165.355243111 -e sim_annotation 165.355243111 76 node 13 receive packet(cbr) 21
+ -t 165.455243111 -s 13 -d -1 -p ACK -e 38 -c 2 -a 0 -i 0 -k MAC 
- -t 165.455243111 -s 13 -d -1 -p ACK -e 38 -c 2 -a 0 -i 0 -k MAC
h -t 165.455243111 -s 13 -d -1 -p ACK -e 38 -c 2 -a 0 -i 0 -k MAC -R 3000.000000
v -t 165.455243111 -e sim_annotation 165.455243111 77 node 13 sendout packet (ACK) 0
r -t 166.353286568 -s 9 -d -1 -p ACK -e 38 -c 2 -a 0 -i 0 -k MAC -R 3000.000000
v -t 166.353286568 -e sim_annotation 166.353286568 78 node 9 receive packet(ACK) 0
+ -t 188.897271392 -s 0 -d -1 -p RTS -e 44 -c 2 -a 0 -i 0 -k MAC 
- -t 188.897271392 -s 0 -d -1 -p RTS -e 44 -c 2 -a 0 -i 0 -k MAC
h -t 188.897271392 -s 0 -d -1 -p RTS -e 44 -c 2 -a 0 -i 0 -k MAC -R 3000.000000
v -t 188.897271392 -e sim_annotation 188.897271392 79 node 0 sendout packet (RTS) 0
r -t 189.823346460 -s 12 -d -1 -p RTS -e 44 -c 2 -a 0 -i 0 -k MAC -R 3000.000000
v -t 189.823346460 -e sim_annotation 189.823346460 80 node 12 receive packet(RTS) 0
+ -t 189.923346460 -s 12 -d -1 -p CTS -e 38 -c 2 -a 0 -i 0 -k MAC 
- -t 189.923346460 -s 12 -d -1 -p CTS -e 38 -c 2 -a 0 -i 0 -k MAC
h -t 189.923346460 -s 12 -d -1 -p CTS -e 38 -c 2 -a 0 -i 0 -k MAC -R 3000.000000
v -t 189.923346460 -e sim_annotation 189.923346460 81 node 12 sendout packet (CTS) 0
r -t 190.800581170 -s 0 -d -1 -p CTS -e 38 -c 2 -a 0 -i 0 -k MAC -R 3000.000000
v -t 190.800581170 -e sim_annotation 190.800581170 82 node 0 receive packet(CTS) 0
+ -t 190.900581170 -s 0 -d -1 -p udp -e 352 -c 2 -a 0 -i 18 -k MAC 
- -t 190.900581170 -s 0 -d -1 -p udp -e 352 -c 2 -a 0 -i 18 -k MAC
h -t 190.900581170 -s 0 -d -1 -p udp -e 352 -c 2 -a 0 -i 18 -k MAC -R 3000.000000
v -t 190.900581170 -e sim_annotation 190.900581170 83 node 0 sendout packet (udp) 18
+ -t 193.493275023 -s 6 -d -1 -p RTS -e 44 -c 2 -a 0 -i 0 -k MAC 
- -t 193.493275023 -s 6 -d -1 -p RTS -e 44 -c 2 -a 0 -i 0 -k MAC
h -t 193.493275023 -s 6 -d -1 -p RTS -e 44 -c 2 -a 0 -i 0 -k MAC -R 3000.000000
v -t 193.493275023 -e sim_annotation 193.493275023 84 node 6 sendout packet (RTS) 0
+ -t 193.624773170 -s 0 -d -1 -p cbr -e 352 -c 2 -a 0 -i 22 -k MAC 
- -t 193.624773170 -s 0 -d -1 -p cbr -e 352 -c 2 -a 0 -i 22 -k MAC
h -t 193.624773170 -s 0 -d -1 -p cbr -e 352 -c 2 -a 0 -i 22 -k MAC -R 3000.000000
v -t 193.624773170 -e sim_annotation 193.624773170 85 node 0 sendout packet (cbr) 22
r -t 194.415608634 -s 13 -d -1 -p RTS -e 44 -c 2 -a 0 -i 0 -k MAC -R 3000.000000
v -t 194.415608634 -e sim_annotation 194.415608634 86 node 13 receive packet(RTS) 0
+ -t 194.515608634 -s 13 -d -1 -p CTS -e 38 -c 2 -a 0 -i 0 -k MAC 
- -t 194.515608634 -s 13 -d -1 -p CTS -e 38 -c 2 -a 0 -i 0 -k MAC
h -t 194.515608634 -s 13 -d -1 -p CTS -e 38 -c 2 -a 0 -i 0 -k MAC -R 3000.000000
v -t 194.515608634 -e sim_annotation 194.515608634 87 node 13 sendout packet (CTS) 0
r -t 195.389117974 -s 6 -d -1 -p CTS -e 38 -c 2 -a 0 -i 0 -k MAC -R 3000.000000
v -t 195.389117974 -e sim_annotation 195.389117974 88 node 6 receive packet(CTS) 0
+ -t 195.489117974 -s 6 -d -1 -p udp -e 352 -c 2 -a 0 -i 20 -k MAC 
- -t 195.489117974 -s 6 -d -1 -p udp -e 352 -c 2 -a 0 -i 20 -k MAC
h -t 195.489117974 -s 6 -d -1 -p udp -e 352 -c 2 -a 0 -i 20 -k MAC -R 3000.000000
v -t 195.489117974 -e sim_annotation 195.489117974 89 node 6 sendout packet (udp) 20
r -t 197.011000595 -s 12 -d -1 -p cbr -e 300 -c 2 -a 0 -i 22 -k MAC -R 3000.000000
v -t 197.011000595 -e sim_annotation 197.011000595 90 node 12 receive packet(cbr) 22
+ -t 197.111000595 -s 12 -d -1 -p ACK -e 38 -c 2 -a 0 -i 0 -k MAC 
- -t 197.111000595 -s 12 -d -1 -p ACK -e 38 -c 2 -a 0 -i 0 -k MAC
h -t 197.111000595 -s 12 -d -1 -p ACK -e 38 -c 2 -a 0 -i 0 -k MAC -R 3000.000000
v -t 197.111000595 -e sim_annotation 197.111000595 91 node 12 sendout packet (ACK) 0
r -t 197.982430524 -s 0 -d -1 -p ACK -e 38 -c 2 -a 0 -i 0 -k MAC -R 3000.000000
v -t 197.982430524 -e sim_annotation 197.982430524 92 node 0 receive packet(ACK) 0
+ -t 198.213309974 -s 6 -d -1 -p cbr -e 352 -c 2 -a 0 -i 24 -k MAC 
- -t 198.213309974 -s 6 -d -1 -p cbr -e 352 -c 2 -a 0 -i 24 -k MAC
h -t 198.213309974 -s 6 -d -1 -p cbr -e 352 -c 2 -a 0 -i 24 -k MAC -R 3000.000000
v -t 198.213309974 -e sim_annotation 198.213309974 93 node 6 sendout packet (cbr) 24
r -t 201.595862480 -s 13 -d -1 -p cbr -e 300 -c 2 -a 0 -i 24 -k MAC -R 3000.000000
v -t 201.595862480 -e sim_annotation 201.595862480 94 node 13 receive packet(cbr) 24
+ -t 201.695862480 -s 13 -d -1 -p ACK -e 38 -c 2 -a 0 -i 0 -k MAC 
- -t 201.695862480 -s 13 -d -1 -p ACK -e 38 -c 2 -a 0 -i 0 -k MAC
h -t 201.695862480 -s 13 -d -1 -p ACK -e 38 -c 2 -a 0 -i 0 -k MAC -R 3000.000000
v -t 201.695862480 -e sim_annotation 201.695862480 95 node 13 sendout packet (ACK) 0
r -t 202.563665575 -s 6 -d -1 -p ACK -e 38 -c 2 -a 0 -i 0 -k MAC -R 3000.000000
v -t 202.563665575 -e sim_annotation 202.563665575 96 node 6 receive packet(ACK) 0
+ -t 215.500025000 -s 12 -d -1 -p audio -e 60 -c 2 -a 0 -i 27 -k MAC 
- -t 215.500025000 -s 12 -d -1 -p audio -e 60 -c 2 -a 0 -i 27 -k MAC
h -t 215.500025000 -s 12 -d -1 -p audio -e 60 -c 2 -a 0 -i 27 -k MAC -R 3000.000000
v -t 215.500025000 -e sim_annotation 215.500025000 97 node 12 sendout packet (audio) 27
r -t 216.533275070 -s 0 -d -1 -p audio -e 60 -c 2 -a 0 -i 27 -k MAC -R 3000.000000
v -t 216.533275070 -e sim_annotation 216.533275070 98 node 0 receive packet(audio) 27
r -t 216.533275070 -s 3 -d -1 -p audio -e 60 -c 2 -a 0 -i 27 -k MAC -R 3000.000000
v -t 216.533275070 -e sim_annotation 216.533275070 99 node 3 receive packet(audio) 27
n -t 217.582652930 -s 1 -S COLOR -c red -o yellow
r -t 217.582652930 -s 1 -d -1 -p audio -e 60 -c 2 -a 0 -i 27 -k MAC -R 3000.000000
v -t 217.582652930 -e sim_annotation 217.582652930 100 node 1 receive packet(audio) 27
n -t 217.582652930 -s 4 -S COLOR -c red -o yellow
r -t 217.582652930 -s 4 -d -1 -p audio -e 60 -c 2 -a 0 -i 27 -k MAC -R 3000.000000
v -t 217.582652930 -e sim_annotation 217.582652930 101 node 4 receive packet(audio) 27
+ -t 218.030604726 -s 3 -d -1 -p RTS -e 44 -c 2 -a 0 -i 0 -k MAC 
- -t 218.030604726 -s 3 -d -1 -p RTS -e 44 -c 2 -a 0 -i 0 -k MAC
h -t 218.030604726 -s 3 -d -1 -p RTS -e 44 -c 2 -a 0 -i 0 -k MAC -R 3000.000000
v -t 218.030604726 -e sim_annotation 218.030604726 102 node 3 sendout packet (RTS) 0
r -t 218.933981215 -s 12 -d -1 -p RTS -e 44 -c 2 -a 0 -i 0 -k MAC -R 3000.000000
v -t 218.933981215 -e sim_annotation 218.933981215 103 node 12 receive packet(RTS) 0
+ -t 219.033981215 -s 12 -d -1 -p CTS -e 38 -c 2 -a 0 -i 0 -k MAC 
- -t 219.033981215 -s 12 -d -1 -p CTS -e 38 -c 2 -a 0 -i 0 -k MAC
h -t 219.033981215 -s 12 -d -1 -p CTS -e 38 -c 2 -a 0 -i 0 -k MAC -R 3000.000000
v -t 219.033981215 -e sim_annotation 219.033981215 104 node 12 sendout packet (CTS) 0
+ -t 219.700025000 -s 13 -d -1 -p audio -e 60 -c 2 -a 0 -i 26 -k MAC 
- -t 219.700025000 -s 13 -d -1 -p audio -e 60 -c 2 -a 0 -i 26 -k MAC
h -t 219.700025000 -s 13 -d -1 -p audio -e 60 -c 2 -a 0 -i 26 -k MAC -R 3000.000000
v -t 219.700025000 -e sim_annotation 219.700025000 105 node 13 sendout packet (audio) 26
r -t 219.888620152 -s 3 -d -1 -p CTS -e 38 -c 2 -a 0 -i 0 -k MAC -R 3000.000000
v -t 219.888620152 -e sim_annotation 219.888620152 106 node 3 receive packet(CTS) 0
+ -t 219.988620152 -s 3 -d -1 -p udp -e 352 -c 2 -a 0 -i 23 -k MAC 
- -t 219.988620152 -s 3 -d -1 -p udp -e 352 -c 2 -a 0 -i 23 -k MAC
h -t 219.988620152 -s 3 -d -1 -p udp -e 352 -c 2 -a 0 -i 23 -k MAC -R 3000.000000
v -t 219.988620152 -e sim_annotation 219.988620152 107 node 3 sendout packet (udp) 23
r -t 220.730176025 -s 6 -d -1 -p audio -e 60 -c 2 -a 0 -i 26 -k MAC -R 3000.000000
v -t 220.730176025 -e sim_annotation 220.730176025 108 node 6 receive packet(audio) 26
r -t 220.730176025 -s 9 -d -1 -p audio -e 60 -c 2 -a 0 -i 26 -k MAC -R 3000.000000
v -t 220.730176025 -e sim_annotation 220.730176025 109 node 9 receive packet(audio) 26
n -t 221.776155843 -s 7 -S COLOR -c red -o yellow
r -t 221.776155843 -s 7 -d -1 -p audio -e 60 -c 2 -a 0 -i 26 -k MAC -R 3000.000000
v -t 221.776155843 -e sim_annotation 221.776155843 110 node 7 receive packet(audio) 26
n -t 221.776155843 -s 10 -S COLOR -c red -o yellow
r -t 221.776155843 -s 10 -d -1 -p audio -e 60 -c 2 -a 0 -i 26 -k MAC -R 3000.000000
v -t 221.776155843 -e sim_annotation 221.776155843 111 node 10 receive packet(audio) 26
+ -t 222.030176025 -s 9 -d -1 -p RTS -e 44 -c 2 -a 0 -i 0 -k MAC 
- -t 222.030176025 -s 9 -d -1 -p RTS -e 44 -c 2 -a 0 -i 0 -k MAC
h -t 222.030176025 -s 9 -d -1 -p RTS -e 44 -c 2 -a 0 -i 0 -k MAC -R 3000.000000
v -t 222.030176025 -e sim_annotation 222.030176025 112 node 9 sendout packet (RTS) 0
+ -t 222.712812152 -s 3 -d -1 -p cbr -e 352 -c 2 -a 0 -i 29 -k MAC 
- -t 222.712812152 -s 3 -d -1 -p cbr -e 352 -c 2 -a 0 -i 29 -k MAC
h -t 222.712812152 -s 3 -d -1 -p cbr -e 352 -c 2 -a 0 -i 29 -k MAC -R 3000.000000
v -t 222.712812152 -e sim_annotation 222.712812152 113 node 3 sendout packet (cbr) 29
r -t 222.930630661 -s 13 -d -1 -p RTS -e 44 -c 2 -a 0 -i 0 -k MAC -R 3000.000000
v -t 222.930630661 -e sim_annotation 222.930630661 114 node 13 receive packet(RTS) 0
+ -t 223.030630661 -s 13 -d -1 -p CTS -e 38 -c 2 -a 0 -i 0 -k MAC 
- -t 223.030630661 -s 13 -d -1 -p CTS -e 38 -c 2 -a 0 -i 0 -k MAC
h -t 223.030630661 -s 13 -d -1 -p CTS -e 38 -c 2 -a 0 -i 0 -k MAC -R 3000.000000
v -t 223.030630661 -e sim_annotation 223.030630661 115 node 13 sendout packet (CTS) 0
r -t 223.882362012 -s 9 -d -1 -p CTS -e 38 -c 2 -a 0 -i 0 -k MAC -R 3000.000000
v -t 223.882362012 -e sim_annotation 223.882362012 116 node 9 receive packet(CTS) 0
+ -t 223.982362012 -s 9 -d -1 -p udp -e 352 -c 2 -a 0 -i 25 -k MAC 
- -t 223.982362012 -s 9 -d -1 -p udp -e 352 -c 2 -a 0 -i 25 -k MAC
h -t 223.982362012 -s 9 -d -1 -p udp -e 352 -c 2 -a 0 -i 25 -k MAC -R 3000.000000
v -t 223.982362012 -e sim_annotation 223.982362012 117 node 9 sendout packet (udp) 25
r -t 226.076772941 -s 12 -d -1 -p cbr -e 300 -c 2 -a 0 -i 29 -k MAC -R 3000.000000
v -t 226.076772941 -e sim_annotation 226.076772941 118 node 12 receive packet(cbr) 29
+ -t 226.176772941 -s 12 -d -1 -p ACK -e 38 -c 2 -a 0 -i 0 -k MAC 
- -t 226.176772941 -s 12 -d -1 -p ACK -e 38 -c 2 -a 0 -i 0 -k MAC