n -t * -s 0  -x 1000 -y 5000 -Z 0 -z 1000  -v circle -c green
n -t * -s 1  -x 1000 -y 3000 -Z 0 -z 1000  -v circle -c green
n -t * -s 2  -x 1000 -y 1000 -Z 0 -z 1000  -v circle -c green
n -t * -s 3  -x 3000 -y 5000 -Z 0 -z 1000  -v circle -c green
n -t * -s 4  -x 3000 -y 3000 -Z 0 -z 1000  -v circle -c green
n -t * -s 5  -x 3000 -y 1000 -Z 0 -z 1000  -v circle -c green
n -t * -s 6  -x 5000 -y 5000 -Z 0 -z 1000  -v circle -c green
n -t * -s 7  -x 5000 -y 3000 -Z 0 -z 1000  -v circle -c green
n -t * -s 8  -x 5000 -y 1000 -Z 0 -z 1000  -v circle -c green
n -t * -s 9  -x 7000 -y 5000 -Z 0 -z 1000  -v circle -c green
n -t * -s 10  -x 7000 -y 3000 -Z 0 -z 1000  -v circle -c green
n -t * -s 11  -x 7000 -y 1000 -Z 0 -z 1000  -v circle -c green
n -t * -s 12  -x 2000 -y 6000 -Z 0 -z 1000  -v circle -c green
n -t * -s 13  -x 6000 -y 6000 -Z 0 -z 1000  -v circle -c green
V -t * -v 1.0a5 -a 0
W -t * -x 10000 -y 6000
A -t * -n 1 -p 0 -o 0xffffffff -c 31 -a 1
A -t * -h 1 -m 2147483647 -s 0
n -t 15.100000 -s 12 -x 2000.000000 -y 6000.000000 -U 0.000000 -V -2.500000 -T 2396.000000
n -t 15.100000 -s 13 -x 6000.000000 -y 6000.000000 -U 0.000000 -V -2.500000 -T 2396.000000
+ -t 15.500025000 -s 13 -d -1 -p vectorbasedforward -e 60 -c 2 -a 0 -i 0 -k MAC 
- -t 15.500025000 -s 13 -d -1 -p vectorbasedforward -e 60 -c 2 -a 0 -i 0 -k MAC
n -t 15.500025000 -s 13 -S COLOR -c red -o yellow
h -t 15.500025000 -s 13 -d -1 -p vectorbasedforward -e 60 -c 2 -a 0 -i 0 -k MAC -R 3000.000000
v -t 15.500025000 -e sim_annotation 15.500025000 1 node 13 sendout packet (vectorbasedforward) 0
n -t 16.730554726 -s 6 -S COLOR -c red -o yellow
r -t 16.730554726 -s 6 -d -1 -p vectorbasedforward -e 60 -c 2 -a 0 -i 0 -k MAC -R 3000.000000
v -t 16.730554726 -e sim_annotation 16.730554726 2 node 6 receive packet(vectorbasedforward) 0
n -t 16.730554726 -s 9 -S COLOR -c red -o yellow
r -t 16.730554726 -s 9 -d -1 -p vectorbasedforward -e 60 -c 2 -a 0 -i 0 -k MAC -R 3000.000000
v -t 16.730554726 -e sim_annotation 16.730554726 3 node 9 receive packet(vectorbasedforward) 0
+ -t 17.100025000 -s 12 -d -1 -p vectorbasedforward -e 60 -c 2 -a 0 -i 1 -k MAC 
- -t 17.100025000 -s 12 -d -1 -p vectorbasedforward -e 60 -c 2 -a 0 -i 1 -k MAC
n -t 17.100025000 -s 12 -S COLOR -c red -o yellow
h -t 17.100025000 -s 12 -d -1 -p vectorbasedforward -e 60 -c 2 -a 0 -i 1 -k MAC -R 3000.000000
v -t 17.100025000 -e sim_annotation 17.100025000 4 node 12 sendout packet (vectorbasedforward) 1
n -t 18.328671943 -s 0 -S COLOR -c red -o yellow
r -t 18.328671943 -s 0 -d -1 -p vectorbasedforward -e 60 -c 2 -a 0 -i 1 -k MAC -R 3000.000000
v -t 18.328671943 -e sim_annotation 18.328671943 5 node 0 receive packet(vectorbasedforward) 1
n -t 18.328671943 -s 3 -S COLOR -c red -o yellow
r -t 18.328671943 -s 3 -d -1 -p vectorbasedforward -e 60 -c 2 -a 0 -i 1 -k MAC -R 3000.000000
v -t 18.328671943 -e sim_annotation 18.328671943 6 node 3 receive packet(vectorbasedforward) 1
+ -t 18.828721943 -s 0 -d -1 -p RTS -e 44 -c 2 -a 0 -i 0 -k MAC 
- -t 18.828721943 -s 0 -d -1 -p RTS -e 44 -c 2 -a 0 -i 0 -k MAC
n -t 18.828721943 -s 0 -S COLOR -c red -o yellow
h -t 18.828721943 -s 0 -d -1 -p RTS -e 44 -c 2 -a 0 -i 0 -k MAC -R 3000.000000
v -t 18.828721943 -e sim_annotation 18.828721943 7 node 0 sendout packet (RTS) 0
n -t 19.927338933 -s 12 -S COLOR -c red -o yellow
r -t 19.927338933 -s 12 -d -1 -p RTS -e 44 -c 2 -a 0 -i 0 -k MAC -R 3000.000000
v -t 19.927338933 -e sim_annotation 19.927338933 8 node 12 receive packet(RTS) 0
+ -t 20.027338933 -s 12 -d -1 -p CTS -e 38 -c 2 -a 0 -i 0 -k MAC 
- -t 20.027338933 -s 12 -d -1 -p CTS -e 38 -c 2 -a 0 -i 0 -k MAC
h -t 20.027338933 -s 12 -d -1 -p CTS -e 38 -c 2 -a 0 -i 0 -k MAC -R 3000.000000
v -t 20.027338933 -e sim_annotation 20.027338933 9 node 12 sendout packet (CTS) 0
n -t 21.076551043 -s 0 -S COLOR -c red -o yellow
r -t 21.076551043 -s 0 -d -1 -p CTS -e 38 -c 2 -a 0 -i 0 -k MAC -R 3000.000000
v -t 21.076551043 -e sim_annotation 21.076551043 10 node 0 receive packet(CTS) 0
+ -t 21.176551043 -s 0 -d -1 -p vectorbasedforward -e 352 -c 2 -a 0 -i 4 -k MAC 
- -t 21.176551043 -s 0 -d -1 -p vectorbasedforward -e 352 -c 2 -a 0 -i 4 -k MAC
h -t 21.176551043 -s 0 -d -1 -p vectorbasedforward -e 352 -c 2 -a 0 -i 4 -k MAC -R 3000.000000
v -t 21.176551043 -e sim_annotation 21.176551043 11 node 0 sendout packet (vectorbasedforward) 4
+ -t 21.830604726 -s 6 -d -1 -p RTS -e 44 -c 2 -a 0 -i 0 -k MAC 
- -t 21.830604726 -s 6 -d -1 -p RTS -e 44 -c 2 -a 0 -i 0 -k MAC
n -t 21.830604726 -s 6 -S COLOR -c red -o yellow
h -t 21.830604726 -s 6 -d -1 -p RTS -e 44 -c 2 -a 0 -i 0 -k MAC -R 3000.000000
v -t 21.830604726 -e sim_annotation 21.830604726 12 node 6 sendout packet (RTS) 0
+ -t 22.230604726 -s 9 -d -1 -p RTS -e 44 -c 2 -a 0 -i 0 -k MAC 
- -t 22.230604726 -s 9 -d -1 -p RTS -e 44 -c 2 -a 0 -i 0 -k MAC
n -t 22.230604726 -s 9 -S COLOR -c red -o yellow
h -t 22.230604726 -s 9 -d -1 -p RTS -e 44 -c 2 -a 0 -i 0 -k MAC -R 3000.000000
v -t 22.230604726 -e sim_annotation 22.230604726 13 node 9 sendout packet (RTS) 0
n -t 22.925707323 -s 13 -S COLOR -c red -o yellow
r -t 22.925707323 -s 13 -d -1 -p RTS -e 44 -c 2 -a 0 -i 0 -k MAC -R 3000.000000
v -t 22.925707323 -e sim_annotation 22.925707323 14 node 13 receive packet(RTS) 0
+ -t 23.025707323 -s 13 -d -1 -p CTS -e 38 -c 2 -a 0 -i 0 -k MAC 
- -t 23.025707323 -s 13 -d -1 -p CTS -e 38 -c 2 -a 0 -i 0 -k MAC
h -t 23.025707323 -s 13 -d -1 -p CTS -e 38 -c 2 -a 0 -i 0 -k MAC -R 3000.000000
v -t 23.025707323 -e sim_annotation 23.025707323 15 node 13 sendout packet (CTS) 0
n -t 23.325240056 -s 13 -S COLOR -c red -o yellow
d -t 23.325240056 -s 13 -d -1 -p RTS -e 44 -c 2 -a 0 -i 0 -k MAC
v -t 23.325240056 -e sim_annotation 23.325240056 16 node 13 drop packet(RTS) 0
n -t 24.071414560 -s 6 -S COLOR -c red -o yellow
r -t 24.071414560 -s 6 -d -1 -p CTS -e 38 -c 2 -a 0 -i 0 -k MAC -R 3000.000000
v -t 24.071414560 -e sim_annotation 24.071414560 17 node 6 receive packet(CTS) 0
+ -t 24.171414560 -s 6 -d -1 -p vectorbasedforward -e 352 -c 2 -a 0 -i 2 -k MAC 
- -t 24.171414560 -s 6 -d -1 -p vectorbasedforward -e 352 -c 2 -a 0 -i 2 -k MAC
h -t 24.171414560 -s 6 -d -1 -p vectorbasedforward -e 352 -c 2 -a 0 -i 2 -k MAC -R 3000.000000
v -t 24.171414560 -e sim_annotation 24.171414560 18 node 6 sendout packet (vectorbasedforward) 2
n -t 24.736418206 -s 12 -S COLOR -c red -o yellow
r -t 24.736418206 -s 12 -d -1 -p vectorbasedforward -e 300 -c 2 -a 0 -i 4 -k MAC -R 3000.000000
v -t 24.736418206 -e sim_annotation 24.736418206 19 node 12 receive packet(vectorbasedforward) 4
+ -t 24.836418206 -s 12 -d -1 -p ACK -e 38 -c 2 -a 0 -i 0 -k MAC 
- -t 24.836418206 -s 12 -d -1 -p ACK -e 38 -c 2 -a 0 -i 0 -k MAC
h -t 24.836418206 -s 12 -d -1 -p ACK -e 38 -c 2 -a 0 -i 0 -k MAC -R 3000.000000
v -t 24.836418206 -e sim_annotation 24.836418206 20 node 12 sendout packet (ACK) 0
r -t 25.880015451 -s 0 -d -1 -p ACK -e 38 -c 2 -a 0 -i 0 -k MAC -R 3000.000000
v -t 25.880015451 -e sim_annotation 25.880015451 21 node 0 receive packet(ACK) 0
n -t 27.727786143 -s 13 -S COLOR -c red -o yellow
r -t 27.727786143 -s 13 -d -1 -p vectorbasedforward -e 300 -c 2 -a 0 -i 2 -k MAC -R 3000.000000
v -t 27.727786143 -e sim_annotation 27.727786143 22 node 13 receive packet(vectorbasedforward) 2
+ -t 27.827786143 -s 13 -d -1 -p ACK -e 38 -c 2 -a 0 -i 0 -k MAC 
- -t 27.827786143 -s 13 -d -1 -p ACK -e 38 -c 2 -a 0 -i 0 -k MAC
h -t 27.827786143 -s 13 -d -1 -p ACK -e 38 -c 2 -a 0 -i 0 -k MAC -R 3000.000000
v -t 27.827786143 -e sim_annotation 27.827786143 23 node 13 sendout packet (ACK) 0
r -t 28.867908587 -s 6 -d -1 -p ACK -e 38 -c 2 -a 0 -i 0 -k MAC -R 3000.000000
v -t 28.867908587 -e sim_annotation 28.867908587 24 node 6 receive packet(ACK) 0
+ -t 30.839419893 -s 3 -d -1 -p RTS -e 44 -c 2 -a 0 -i 0 -k MAC 
- -t 30.839419893 -s 3 -d -1 -p RTS -e 44 -c 2 -a 0 -i 0 -k MAC
n -t 30.839419893 -s 3 -S COLOR -c red -o yellow
h -t 30.839419893 -s 3 -d -1 -p RTS -e 44 -c 2 -a 0 -i 0 -k MAC -R 3000.000000
v -t 30.839419893 -e sim_annotation 30.839419893 25 node 3 sendout packet (RTS) 0
r -t 31.924057964 -s 12 -d -1 -p RTS -e 44 -c 2 -a 0 -i 0 -k MAC -R 3000.000000
v -t 31.924057964 -e sim_annotation 31.924057964 26 node 12 receive packet(RTS) 0
+ -t 32.024057964 -s 12 -d -1 -p CTS -e 38 -c 2 -a 0 -i 0 -k MAC 
- -t 32.024057964 -s 12 -d -1 -p CTS -e 38 -c 2 -a 0 -i 0 -k MAC
h -t 32.024057964 -s 12 -d -1 -p CTS -e 38 -c 2 -a 0 -i 0 -k MAC -R 3000.000000
v -t 32.024057964 -e sim_annotation 32.024057964 27 node 12 sendout packet (CTS) 0
n -t 33.059329317 -s 3 -S COLOR -c red -o yellow
r -t 33.059329317 -s 3 -d -1 -p CTS -e 38 -c 2 -a 0 -i 0 -k MAC -R 3000.000000
v -t 33.059329317 -e sim_annotation 33.059329317 28 node 3 receive packet(CTS) 0
+ -t 33.159329317 -s 3 -d -1 -p vectorbasedforward -e 352 -c 2 -a 0 -i 5 -k MAC 
- -t 33.159329317 -s 3 -d -1 -p vectorbasedforward -e 352 -c 2 -a 0 -i 5 -k MAC
h -t 33.159329317 -s 3 -d -1 -p vectorbasedforward -e 352 -c 2 -a 0 -i 5 -k MAC -R 3000.000000
v -t 33.159329317 -e sim_annotation 33.159329317 29 node 3 sendout packet (vectorbasedforward) 5
r -t 36.705292975 -s 12 -d -1 -p vectorbasedforward -e 300 -c 2 -a 0 -i 5 -k MAC -R 3000.000000
v -t 36.705292975 -e sim_annotation 36.705292975 30 node 12 receive packet(vectorbasedforward) 5
+ -t 36.805292975 -s 12 -d -1 -p ACK -e 38 -c 2 -a 0 -i 0 -k MAC 
- -t 36.805292975 -s 12 -d -1 -p ACK -e 38 -c 2 -a 0 -i 0 -k MAC
h -t 36.805292975 -s 12 -d -1 -p ACK -e 38 -c 2 -a 0 -i 0 -k MAC -R 3000.000000
v -t 36.805292975 -e sim_annotation 36.805292975 31 node 12 sendout packet (ACK) 0
r -t 37.835070704 -s 3 -d -1 -p ACK -e 38 -c 2 -a 0 -i 0 -k MAC -R 3000.000000
v -t 37.835070704 -e sim_annotation 37.835070704 32 node 3 receive packet(ACK) 0
+ -t 40.167908587 -s 9 -d -1 -p RTS -e 44 -c 2 -a 0 -i 0 -k MAC 
- -t 40.167908587 -s 9 -d -1 -p RTS -e 44 -c 2 -a 0 -i 0 -k MAC
h -t 40.167908587 -s 9 -d -1 -p RTS -e 44 -c 2 -a 0 -i 0 -k MAC -R 3000.000000
v -t 40.167908587 -e sim_annotation 40.167908587 33 node 9 sendout packet (RTS) 0
r -t 41.241844524 -s 13 -d -1 -p RTS -e 44 -c 2 -a 0 -i 0 -k MAC -R 3000.000000
v -t 41.241844524 -e sim_annotation 41.241844524 34 node 13 receive packet(RTS) 0
+ -t 41.341844524 -s 13 -d -1 -p CTS -e 38 -c 2 -a 0 -i 0 -k MAC 
- -t 41.341844524 -s 13 -d -1 -p CTS -e 38 -c 2 -a 0 -i 0 -k MAC
h -t 41.341844524 -s 13 -d -1 -p CTS -e 38 -c 2 -a 0 -i 0 -k MAC -R 3000.000000
v -t 41.341844524 -e sim_annotation 41.341844524 35 node 13 sendout packet (CTS) 0
n -t 42.366443534 -s 9 -S COLOR -c red -o yellow
r -t 42.366443534 -s 9 -d -1 -p CTS -e 38 -c 2 -a 0 -i 0 -k MAC -R 3000.000000
v -t 42.366443534 -e sim_annotation 42.366443534 36 node 9 receive packet(CTS) 0
+ -t 42.466443534 -s 9 -d -1 -p vectorbasedforward -e 352 -c 2 -a 0 -i 3 -k MAC 
- -t 42.466443534 -s 9 -d -1 -p vectorbasedforward -e 352 -c 2 -a 0 -i 3 -k MAC
h -t 42.466443534 -s 9 -d -1 -p vectorbasedforward -e 352 -c 2 -a 0 -i 3 -k MAC -R 3000.000000
v -t 42.466443534 -e sim_annotation 42.466443534 37 node 9 sendout packet (vectorbasedforward) 3
r -t 46.001763905 -s 13 -d -1 -p vectorbasedforward -e 300 -c 2 -a 0 -i 3 -k MAC -R 3000.000000
v -t 46.001763905 -e sim_annotation 46.001763905 38 node 13 receive packet(vectorbasedforward) 3
+ -t 46.101763905 -s 13 -d -1 -p ACK -e 38 -c 2 -a 0 -i 0 -k MAC 
- -t 46.101763905 -s 13 -d -1 -p ACK -e 38 -c 2 -a 0 -i 0 -k MAC
h -t 46.101763905 -s 13 -d -1 -p ACK -e 38 -c 2 -a 0 -i 0 -k MAC -R 3000.000000
v -t 46.101763905 -e sim_annotation 46.101763905 39 node 13 sendout packet (ACK) 0
r -t 47.120965182 -s 9 -d -1 -p ACK -e 38 -c 2 -a 0 -i 0 -k MAC -R 3000.000000
v -t 47.120965182 -e sim_annotation 47.120965182 40 node 9 receive packet(ACK) 0
+ -t 217.500025000 -s 13 -d -1 -p vectorbasedforward -e 60 -c 2 -a 0 -i 6 -k MAC 
- -t 217.500025000 -s 13 -d -1 -p vectorbasedforward -e 60 -c 2 -a 0 -i 6 -k MAC
h -t 217.500025000 -s 13 -d -1 -p vectorbasedforward -e 60 -c 2 -a 0 -i 6 -k MAC -R 3000.000000
v -t 217.500025000 -e sim_annotation 217.500025000 41 node 13 sendout packet (vectorbasedforward) 6
r -t 218.531792727 -s 6 -d -1 -p vectorbasedforward -e 60 -c 2 -a 0 -i 6 -k MAC -R 3000.000000
v -t 218.531792727 -e sim_annotation 218.531792727 42 node 6 receive packet(vectorbasedforward) 6
r -t 218.531792727 -s 9 -d -1 -p vectorbasedforward -e 60 -c 2 -a 0 -i 6 -k MAC -R 3000.000000
v -t 218.531792727 -e sim_annotation 218.531792727 43 node 9 receive packet(vectorbasedforward) 6
+ -t 219.100025000 -s 12 -d -1 -p vectorbasedforward -e 60 -c 2 -a 0 -i 7 -k MAC 
- -t 219.100025000 -s 12 -d -1 -p vectorbasedforward -e 60 -c 2 -a 0 -i 7 -k MAC
h -t 219.100025000 -s 12 -d -1 -p vectorbasedforward -e 60 -c 2 -a 0 -i 7 -k MAC -R 3000.000000
v -t 219.100025000 -e sim_annotation 219.100025000 44 node 12 sendout packet (vectorbasedforward) 7
n -t 219.579558606 -s 10 -S COLOR -c red -o yellow
r -t 219.579558606 -s 10 -d -1 -p vectorbasedforward -e 60 -c 2 -a 0 -i 6 -k MAC -R 3000.000000
v -t 219.579558606 -e sim_annotation 219.579558606 45 node 10 receive packet(vectorbasedforward) 6
r -t 220.130615497 -s 0 -d -1 -p vectorbasedforward -e 60 -c 2 -a 0 -i 7 -k MAC -R 3000.000000
v -t 220.130615497 -e sim_annotation 220.130615497 46 node 0 receive packet(vectorbasedforward) 7
r -t 220.130615497 -s 3 -d -1 -p vectorbasedforward -e 60 -c 2 -a 0 -i 7 -k MAC -R 3000.000000
v -t 220.130615497 -e sim_annotation 220.130615497 47 node 3 receive packet(vectorbasedforward) 7
n -t 221.177083766 -s 4 -S COLOR -c red -o yellow
r -t 221.177083766 -s 4 -d -1 -p vectorbasedforward -e 60 -c 2 -a 0 -i 7 -k MAC -R 3000.000000
v -t 221.177083766 -e sim_annotation 221.177083766 48 node 4 receive packet(vectorbasedforward) 7
+ -t 221.879608606 -s 10 -d -1 -p RTS -e 44 -c 2 -a 0 -i 0 -k MAC 
- -t 221.879608606 -s 10 -d -1 -p RTS -e 44 -c 2 -a 0 -i 0 -k MAC
n -t 221.879608606 -s 10 -S COLOR -c red -o yellow
h -t 221.879608606 -s 10 -d -1 -p RTS -e 44 -c 2 -a 0 -i 0 -k MAC -R 3000.000000
v -t 221.879608606 -e sim_annotation 221.879608606 49 node 10 sendout packet (RTS) 0
+ -t 223.477133766 -s 4 -d -1 -p RTS -e 44 -c 2 -a 0 -i 0 -k MAC 
- -t 223.477133766 -s 4 -d -1 -p RTS -e 44 -c 2 -a 0 -i 0 -k MAC
n -t 223.477133766 -s 4 -S COLOR -c red -o yellow
h -t 223.477133766 -s 4 -d -1 -p RTS -e 44 -c 2 -a 0 -i 0 -k MAC -R 3000.000000
v -t 223.477133766 -e sim_annotation 223.477133766 50 node 4 sendout packet (RTS) 0
r -t 223.824369295 -s 13 -d -1 -p RTS -e 44 -c 2 -a 0 -i 0 -k MAC -R 3000.000000
v -t 223.824369295 -e sim_annotation 223.824369295 51 node 13 receive packet(RTS) 0
+ -t 223.924369295 -s 13 -d -1 -p CTS -e 38 -c 2 -a 0 -i 0 -k MAC 
- -t 223.924369295 -s 13 -d -1 -p CTS -e 38 -c 2 -a 0 -i 0 -k MAC
h -t 223.924369295 -s 13 -d -1 -p CTS -e 38 -c 2 -a 0 -i 0 -k MAC -R 3000.000000
v -t 223.924369295 -e sim_annotation 223.924369295 52 node 13 sendout packet (CTS) 0
r -t 225.419424956 -s 12 -d -1 -p RTS -e 44 -c 2 -a 0 -i 0 -k MAC -R 3000.000000
v -t 225.419424956 -e sim_annotation 225.419424956 53 node 12 receive packet(RTS) 0
+ -t 225.519424956 -s 12 -d -1 -p CTS -e 38 -c 2 -a 0 -i 0 -k MAC 
- -t 225.519424956 -s 12 -d -1 -p CTS -e 38 -c 2 -a 0 -i 0 -k MAC
h -t 225.519424956 -s 12 -d -1 -p CTS -e 38 -c 2 -a 0 -i 0 -k MAC -R 3000.000000
v -t 225.519424956 -e sim_annotation 225.519424956 54 node 12 sendout packet (CTS) 0
n -t 225.817969236 -s 10 -S COLOR -c red -o yellow
r -t 225.817969236 -s 10 -d -1 -p CTS -e 38 -c 2 -a 0 -i 0 -k MAC -R 3000.000000
v -t 225.817969236 -e sim_annotation 225.817969236 55 node 10 receive packet(CTS) 0
+ -t 225.917969236 -s 10 -d -1 -p vectorbasedforward -e 352 -c 2 -a 0 -i 8 -k MAC 
- -t 225.917969236 -s 10 -d -1 -p vectorbasedforward -e 352 -c 2 -a 0 -i 8 -k MAC
h -t 225.917969236 -s 10 -d -1 -p vectorbasedforward -e 352 -c 2 -a 0 -i 8 -k MAC -R 3000.000000
v -t 225.917969236 -e sim_annotation 225.917969236 56 node 10 sendout packet (vectorbasedforward) 8
n -t 227.410559928 -s 4 -S COLOR -c red -o yellow
r -t 227.410559928 -s 4 -d -1 -p CTS -e 38 -c 2 -a 0 -i 0 -k MAC -R 3000.000000
v -t 227.410559928 -e sim_annotation 227.410559928 57 node 4 receive packet(CTS) 0
+ -t 227.510559928 -s 4 -d -1 -p vectorbasedforward -e 352 -c 2 -a 0 -i 9 -k MAC 
- -t 227.510559928 -s 4 -d -1 -p vectorbasedforward -e 352 -c 2 -a 0 -i 9 -k MAC
h -t 227.510559928 -s 4 -d -1 -p vectorbasedforward -e 352 -c 2 -a 0 -i 9 -k MAC -R 3000.000000
v -t 227.510559928 -e sim_annotation 227.510559928 58 node 4 sendout packet (vectorbasedforward) 9
r -t 230.320488392 -s 13 -d -1 -p vectorbasedforward -e 300 -c 2 -a 0 -i 8 -k MAC -R 3000.000000
v -t 230.320488392 -e sim_annotation 230.320488392 59 node 13 receive packet(vectorbasedforward) 8
+ -t 230.420488392 -s 13 -d -1 -p ACK -e 38 -c 2 -a 0 -i 0 -k MAC 
- -t 230.420488392 -s 13 -d -1 -p ACK -e 38 -c 2 -a 0 -i 0 -k MAC
h -t 230.420488392 -s 13 -d -1 -p ACK -e 38 -c 2 -a 0 -i 0 -k MAC -R 3000.000000
v -t 230.420488392 -e sim_annotation 230.420488392 60 node 13 sendout packet (ACK) 0
r -t 231.910618619 -s 12 -d -1 -p vectorbasedforward -e 300 -c 2 -a 0 -i 9 -k MAC -R 3000.000000
v -t 231.910618619 -e sim_annotation 231.910618619 61 node 12 receive packet(vectorbasedforward) 9
+ -t 232.010618619 -s 12 -d -1 -p ACK -e 38 -c 2 -a 0 -i 0 -k MAC 
- -t 232.010618619 -s 12 -d -1 -p ACK -e 38 -c 2 -a 0 -i 0 -k MAC
h -t 232.010618619 -s 12 -d -1 -p ACK -e 38 -c 2 -a 0 -i 0 -k MAC -R 3000.000000
v -t 232.010618619 -e sim_annotation 232.010618619 62 node 12 sendout packet (ACK) 0
r -t 232.304052851 -s 10 -d -1 -p ACK -e 38 -c 2 -a 0 -i 0 -k MAC -R 3000.000000
v -t 232.304052851 -e sim_annotation 232.304052851 63 node 10 receive packet(ACK) 0
r -t 233.891728000 -s 4 -d -1 -p ACK -e 38 -c 2 -a 0 -i 0 -k MAC -R 3000.000000
v -t 233.891728000 -e sim_annotation 233.891728000 64 node 4 receive packet(ACK) 0
+ -t 353.562055277 -s 3 -d -1 -p RTS -e 44 -c 2 -a 0 -i 0 -k MAC 
- -t 353.562055277 -s 3 -d -1 -p RTS -e 44 -c 2 -a 0 -i 0 -k MAC
h -t 353.562055277 -s 3 -d -1 -p RTS -e 44 -c 2 -a 0 -i 0 -k MAC -R 3000.000000
v -t 353.562055277 -e sim_annotation 353.562055277 65 node 3 sendout packet (RTS) 0
+ -t 353.762055277 -s 0 -d -1 -p RTS -e 44 -c 2 -a 0 -i 0 -k MAC 
- -t 353.762055277 -s 0 -d -1 -p RTS -e 44 -c 2 -a 0 -i 0 -k MAC
h -t 353.762055277 -s 0 -d -1 -p RTS -e 44 -c 2 -a 0 -i 0 -k MAC -R 3000.000000
v -t 353.762055277 -e sim_annotation 353.762055277 66 node 0 sendout packet (RTS) 0
r -t 354.396757219 -s 12 -d -1 -p RTS -e 44 -c 2 -a 0 -i 0 -k MAC -R 3000.000000
v -t 354.396757219 -e sim_annotation 354.396757219 67 node 12 receive packet(RTS) 0
+ -t 354.563938059 -s 6 -d -1 -p RTS -e 44 -c 2 -a 0 -i 0 -k MAC 
- -t 354.563938059 -s 6 -d -1 -p RTS -e 44 -c 2 -a 0 -i 0 -k MAC
h -t 354.563938059 -s 6 -d -1 -p RTS -e 44 -c 2 -a 0 -i 0 -k MAC -R 3000.000000
v -t 354.563938059 -e sim_annotation 354.563938059 68 node 6 sendout packet (RTS) 0
r -t 354.596706615 -s 12 -d -1 -p RTS -e 44 -c 2 -a 0 -i 0 -k MAC -R 3000.000000
v -t 354.596706615 -e sim_annotation 354.596706615 69 node 12 receive packet(RTS) 0
+ -t 354.696706615 -s 12 -d -1 -p CTS -e 38 -c 2 -a 0 -i 0 -k MAC 
- -t 354.696706615 -s 12 -d -1 -p CTS -e 38 -c 2 -a 0 -i 0 -k MAC
h -t 354.696706615 -s 12 -d -1 -p CTS -e 38 -c 2 -a 0 -i 0 -k MAC -R 3000.000000
v -t 354.696706615 -e sim_annotation 354.696706615 70 node 12 sendout packet (CTS) 0
+ -t 355.363938059 -s 9 -d -1 -p RTS -e 44 -c 2 -a 0 -i 0 -k MAC 
- -t 355.363938059 -s 9 -d -1 -p RTS -e 44 -c 2 -a 0 -i 0 -k MAC
h -t 355.363938059 -s 9 -d -1 -p RTS -e 44 -c 2 -a 0 -i 0 -k MAC -R 3000.000000
v -t 355.363938059 -e sim_annotation 355.363938059 71 node 9 sendout packet (RTS) 0
r -t 355.398388118 -s 13 -d -1 -p RTS -e 44 -c 2 -a 0 -i 0 -k MAC -R 3000.000000
v -t 355.398388118 -e sim_annotation 355.398388118 72 node 13 receive packet(RTS) 0
r -t 355.483123597 -s 0 -d -1 -p CTS -e 38 -c 2 -a 0 -i 0 -k MAC -R 3000.000000
v -t 355.483123597 -e sim_annotation 355.483123597 73 node 0 receive packet(CTS) 0
+ -t 355.498388118 -s 13 -d -1 -p CTS -e 38 -c 2 -a 0 -i 0 -k MAC 
- -t 355.498388118 -s 13 -d -1 -p CTS -e 38 -c 2 -a 0 -i 0 -k MAC
h -t 355.498388118 -s 13 -d -1 -p CTS -e 38 -c 2 -a 0 -i 0 -k MAC -R 3000.000000
v -t 355.498388118 -e sim_annotation 355.498388118 74 node 13 sendout packet (CTS) 0
+ -t 355.583123597 -s 0 -d -1 -p vectorbasedforward -e 352 -c 2 -a 0 -i 12 -k MAC 
- -t 355.583123597 -s 0 -d -1 -p vectorbasedforward -e 352 -c 2 -a 0 -i 12 -k MAC
h -t 355.583123597 -s 0 -d -1 -p vectorbasedforward -e 352 -c 2 -a 0 -i 12 -k MAC -R 3000.000000
v -t 355.583123597 -e sim_annotation 355.583123597 75 node 0 sendout packet (vectorbasedforward) 12
d -t 356.198189892 -s 13 -d -1 -p RTS -e 44 -c 2 -a 0 -i 0 -k MAC
v -t 356.198189892 -e sim_annotation 356.198189892 76 node 13 drop packet(RTS) 0
r -t 356.284606890 -s 6 -d -1 -p CTS -e 38 -c 2 -a 0 -i 0 -k MAC -R 3000.000000
v -t 356.284606890 -e sim_annotation 356.284606890 77 node 6 receive packet(CTS) 0
+ -t 356.384606890 -s 6 -d -1 -p vectorbasedforward -e 352 -c 2 -a 0 -i 10 -k MAC 
- -t 356.384606890 -s 6 -d -1 -p vectorbasedforward -e 352 -c 2 -a 0 -i 10 -k MAC
h -t 356.384606890 -s 6 -d -1 -p vectorbasedforward -e 352 -c 2 -a 0 -i 10 -k MAC -R 3000.000000
v -t 356.384606890 -e sim_annotation 356.384606890 78 node 6 sendout packet (vectorbasedforward) 10
r -t 358.881321570 -s 12 -d -1 -p vectorbasedforward -e 300 -c 2 -a 0 -i 12 -k MAC -R 3000.000000
v -t 358.881321570 -e sim_annotation 358.881321570 79 node 12 receive packet(vectorbasedforward) 12
+ -t 358.981321570 -s 12 -d -1 -p ACK -e 38 -c 2 -a 0 -i 0 -k MAC 
- -t 358.981321570 -s 12 -d -1 -p ACK -e 38 -c 2 -a 0 -i 0 -k MAC
h -t 358.981321570 -s 12 -d -1 -p ACK -e 38 -c 2 -a 0 -i 0 -k MAC -R 3000.000000
v -t 358.981321570 -e sim_annotation 358.981321570 80 node 12 sendout packet (ACK) 0
r -t 359.682609565 -s 13 -d -1 -p vectorbasedforward -e 300 -c 2 -a 0 -i 10 -k MAC -R 3000.000000
v -t 359.682609565 -e sim_annotation 359.682609565 81 node 13 receive packet(vectorbasedforward) 10
r -t 359.766709320 -s 0 -d -1 -p ACK -e 38 -c 2 -a 0 -i 0 -k MAC -R 3000.000000
v -t 359.766709320 -e sim_annotation 359.766709320 82 node 0 receive packet(ACK) 0
+ -t 359.782609565 -s 13 -d -1 -p ACK -e 38 -c 2 -a 0 -i 0 -k MAC 
- -t 359.782609565 -s 13 -d -1 -p ACK -e 38 -c 2 -a 0 -i 0 -k MAC
h -t 359.782609565 -s 13 -d -1 -p ACK -e 38 -c 2 -a 0 -i 0 -k MAC -R 3000.000000
v -t 359.782609565 -e sim_annotation 359.782609565 83 node 13 sendout packet (ACK) 0
r -t 360.567813067 -s 6 -d -1 -p ACK -e 38 -c 2 -a 0 -i 0 -k MAC -R 3000.000000
v -t 360.567813067 -e sim_annotation 360.567813067 84 node 6 receive packet(ACK) 0
+ -t 361.452612223 -s 3 -d -1 -p RTS -e 44 -c 2 -a 0 -i 0 -k MAC 
- -t 361.452612223 -s 3 -d -1 -p RTS -e 44 -c 2 -a 0 -i 0 -k MAC
h -t 361.452612223 -s 3 -d -1 -p RTS -e 44 -c 2 -a 0 -i 0 -k MAC -R 3000.000000
v -t 361.452612223 -e sim_annotation 361.452612223 85 node 3 sendout packet (RTS) 0
r -t 362.285440087 -s 12 -d -1 -p RTS -e 44 -c 2 -a 0 -i 0 -k MAC -R 3000.000000
v -t 362.285440087 -e sim_annotation 362.285440087 86 node 12 receive packet(RTS) 0
+ -t 362.385440087 -s 12 -d -1 -p CTS -e 38 -c 2 -a 0 -i 0 -k MAC 
- -t 362.385440087 -s 12 -d -1 -p CTS -e 38 -c 2 -a 0 -i 0 -k MAC
h -t 362.385440087 -s 12 -d -1 -p CTS -e 38 -c 2 -a 0 -i 0 -k MAC -R 3000.000000
v -t 362.385440087 -e sim_annotation 362.385440087 87 node 12 sendout packet (CTS) 0
r -t 363.170063052 -s 3 -d -1 -p CTS -e 38 -c 2 -a 0 -i 0 -k MAC -R 3000.000000
v -t 363.170063052 -e sim_annotation 363.170063052 88 node 3 receive packet(CTS) 0
+ -t 363.270063052 -s 3 -d -1 -p vectorbasedforward -e 352 -c 2 -a 0 -i 13 -k MAC 
- -t 363.270063052 -s 3 -d -1 -p vectorbasedforward -e 352 -c 2 -a 0 -i 13 -k MAC
h -t 363.270063052 -s 3 -d -1 -p vectorbasedforward -e 352 -c 2 -a 0 -i 13 -k MAC -R 3000.000000
v -t 363.270063052 -e sim_annotation 363.270063052 89 node 3 sendout packet (vectorbasedforward) 13
r -t 366.566494970 -s 12 -d -1 -p vectorbasedforward -e 300 -c 2 -a 0 -i 13 -k MAC -R 3000.000000
v -t 366.566494970 -e sim_annotation 366.566494970 90 node 12 receive packet(vectorbasedforward) 13
+ -t 366.666494970 -s 12 -d -1 -p ACK -e 38 -c 2 -a 0 -i 0 -k MAC 
- -t 366.666494970 -s 12 -d -1 -p ACK -e 38 -c 2 -a 0 -i 0 -k MAC
h -t 366.666494970 -s 12 -d -1 -p ACK -e 38 -c 2 -a 0 -i 0 -k MAC -R 3000.000000
v -t 366.666494970 -e sim_annotation 366.666494970 91 node 12 sendout packet (ACK) 0
r -t 367.450222946 -s 3 -d -1 -p ACK -e 38 -c 2 -a 0 -i 0 -k MAC -R 3000.000000
v -t 367.450222946 -e sim_annotation 367.450222946 92 node 3 receive packet(ACK) 0
+ -t 373.267813067 -s 9 -d -1 -p RTS -e 44 -c 2 -a 0 -i 0 -k MAC 
- -t 373.267813067 -s 9 -d -1 -p RTS -e 44 -c 2 -a 0 -i 0 -k MAC
h -t 373.267813067 -s 9 -d -1 -p RTS -e 44 -c 2 -a 0 -i 0 -k MAC -R 3000.000000
v -t 373.267813067 -e sim_annotation 373.267813067 93 node 9 sendout packet (RTS) 0
r -t 374.098307511 -s 13 -d -1 -p RTS -e 44 -c 2 -a 0 -i 0 -k MAC -R 3000.000000
v -t 374.098307511 -e sim_annotation 374.098307511 94 node 13 receive packet(RTS) 0
+ -t 374.198307511 -s 13 -d -1 -p CTS -e 38 -c 2 -a 0 -i 0 -k MAC 
- -t 374.198307511 -s 13 -d -1 -p CTS -e 38 -c 2 -a 0 -i 0 -k MAC
h -t 374.198307511 -s 13 -d -1 -p CTS -e 38 -c 2 -a 0 -i 0 -k MAC -R 3000.000000
v -t 374.198307511 -e sim_annotation 374.198307511 95 node 13 sendout packet (CTS) 0
r -t 374.980642424 -s 9 -d -1 -p CTS -e 38 -c 2 -a 0 -i 0 -k MAC -R 3000.000000
v -t 374.980642424 -e sim_annotation 374.980642424 96 node 9 receive packet(CTS) 0
+ -t 375.080642424 -s 9 -d -1 -p vectorbasedforward -e 352 -c 2 -a 0 -i 11 -k MAC 
- -t 375.080642424 -s 9 -d -1 -p vectorbasedforward -e 352 -c 2 -a 0 -i 11 -k MAC
h -t 375.080642424 -s 9 -d -1 -p vectorbasedforward -e 352 -c 2 -a 0 -i 11 -k MAC -R 3000.000000
v -t 375.080642424 -e sim_annotation 375.080642424 97 node 9 sendout packet (vectorbasedforward) 11
r -t 378.374829343 -s 13 -d -1 -p vectorbasedforward -e 300 -c 2 -a 0 -i 11 -k MAC -R 3000.000000
v -t 378.374829343 -e sim_annotation 378.374829343 98 node 13 receive packet(vectorbasedforward) 11
+ -t 378.474829343 -s 13 -d -1 -p ACK -e 38 -c 2 -a 0 -i 0 -k MAC 
- -t 378.474829343 -s 13 -d -1 -p ACK -e 38 -c 2 -a 0 -i 0 -k MAC
h -t 378.474829343 -s 13 -d -1 -p ACK -e 38 -c 2 -a 0 -i 0 -k MAC -R 3000.000000
v -t 378.474829343 -e sim_annotation 378.474829343 99 node 13 sendout packet (ACK) 0
r -t 379.256476767 -s 9 -d -1 -p ACK -e 38 -c 2 -a 0 -i 0 -k MAC -R 3000.000000
v -t 379.256476767 -e sim_annotation 379.256476767 100 node 9 receive packet(ACK) 0
+ -t 419.100025000 -s 13 -d -1 -p vectorbasedforward -e 60 -c 2 -a 0 -i 14 -k MAC 
- -t 419.100025000 -s 13 -d -1 -p vectorbasedforward -e 60 -c 2 -a 0 -i 14 -k MAC
h -t 419.100025000 -s 13 -d -1 -p vectorbasedforward -e 60 -c 2 -a 0 -i 14 -k MAC -R 3000.000000
v -t 419.100025000 -e sim_annotation 419.100025000 101 node 13 sendout packet (vectorbasedforward) 14
r -t 420.054917000 -s 6 -d -1 -p vectorbasedforward -e 60 -c 2 -a 0 -i 14 -k MAC -R 3000.000000
v -t 420.054917000 -e sim_annotation 420.054917000 102 node 6 receive packet(vectorbasedforward) 14
r -t 420.054917000 -s 9 -d -1 -p vectorbasedforward -e 60 -c 2 -a 0 -i 14 -k MAC -R 3000.000000
v -t 420.054917000 -e sim_annotation 420.054917000 103 node 9 receive packet(vectorbasedforward) 14
+ -t 420.100025000 -s 12 -d -1 -p vectorbasedforward -e 60 -c 2 -a 0 -i 15 -k MAC 
- -t 420.100025000 -s 12 -d -1 -p vectorbasedforward -e 60 -c 2 -a 0 -i 15 -k MAC
h -t 420.100025000 -s 12 -d -1 -p vectorbasedforward -e 60 -c 2 -a 0 -i 15 -k MAC -R 3000.000000
v -t 420.100025000 -e sim_annotation 420.100025000 104 node 12 sendout packet (vectorbasedforward) 15
n -t 420.872969093 -s 7 -S COLOR -c red -o yellow
r -t 420.872969093 -s 7 -d -1 -p vectorbasedforward -e 60 -c 2 -a 0 -i 14 -k MAC -R 3000.000000
v -t 420.872969093 -e sim_annotation 420.872969093 105 node 7 receive packet(vectorbasedforward) 14
r -t 420.872969093 -s 10 -d -1 -p vectorbasedforward -e 60 -c 2 -a 0 -i 14 -k MAC -R 3000.000000
v -t 420.872969093 -e sim_annotation 420.872969093 106 node 10 receive packet(vectorbasedforward) 14
r -t 421.054935748 -s 0 -d -1 -p vectorbasedforward -e 60 -c 2 -a 0 -i 15 -k MAC -R 3000.000000
v -t 421.054935748 -e sim_annotation 421.054935748 107 node 0 receive packet(vectorbasedforward) 15
r -t 421.054935748 -s 3 -d -1 -p vectorbasedforward -e 60 -c 2 -a 0 -i 15 -k MAC -R 3000.000000
v -t 421.054935748 -e sim_annotation 421.054935748 108 node 3 receive packet(vectorbasedforward) 15
n -t 421.871480070 -s 1 -S COLOR -c red -o yellow
r -t 421.871480070 -s 1 -d -1 -p vectorbasedforward -e 60 -c 2 -a 0 -i 15 -k MAC -R 3000.000000
v -t 421.871480070 -e sim_annotation 421.871480070 109 node 1 receive packet(vectorbasedforward) 15
r -t 421.871480070 -s 4 -d -1 -p vectorbasedforward -e 60 -c 2 -a 0 -i 15 -k MAC -R 3000.000000
v -t 421.871480070 -e sim_annotation 421.871480070 110 node 4 receive packet(vectorbasedforward) 15
+ -t 422.173019093 -s 7 -d -1 -p RTS -e 44 -c 2 -a 0 -i 0 -k MAC 
- -t 422.173019093 -s 7 -d -1 -p RTS -e 44 -c 2 -a 0 -i 0 -k MAC
n -t 422.173019093 -s 7 -S COLOR -c red -o yellow
h -t 422.173019093 -s 7 -d -1 -p RTS -e 44 -c 2 -a 0 -i 0 -k MAC -R 3000.000000
v -t 422.173019093 -e sim_annotation 422.173019093 111 node 7 sendout packet (RTS) 0
r -t 423.813388632 -s 13 -d -1 -p RTS -e 44 -c 2 -a 0 -i 0 -k MAC -R 3000.000000
v -t 423.813388632 -e sim_annotation 423.813388632 112 node 13 receive packet(RTS) 0
+ -t 423.913388632 -s 13 -d -1 -p CTS -e 38 -c 2 -a 0 -i 0 -k MAC 
- -t 423.913388632 -s 13 -d -1 -p CTS -e 38 -c 2 -a 0 -i 0 -k MAC
h -t 423.913388632 -s 13 -d -1 -p CTS -e 38 -c 2 -a 0 -i 0 -k MAC -R 3000.000000
v -t 423.913388632 -e sim_annotation 423.913388632 113 node 13 sendout packet (CTS) 0
+ -t 424.371530070 -s 1 -d -1 -p RTS -e 44 -c 2 -a 0 -i 0 -k MAC 
- -t 424.371530070 -s 1 -d -1 -p RTS -e 44 -c 2 -a 0 -i 0 -k MAC
n -t 424.371530070 -s 1 -S COLOR -c red -o yellow
h -t 424.371530070 -s 1 -d -1 -p RTS -e 44 -c 2 -a 0 -i 0 -k MAC -R 3000.000000
v -t 424.371530070 -e sim_annotation 424.371530070 114 node 1 sendout packet (RTS) 0
n -t 425.503168996 -s 7 -S COLOR -c red -o yellow