n -t * -s 0  -x 1000 -y 5000 -Z 0 -z 1000  -v circle -c green
n -t * -s 1  -x 1000 -y 3000 -Z 0 -z 1000  -v circle -c green
n -t * -s 2  -x 1000 -y 1000 -Z 0 -z 1000  -v circle -c green
n -t * -s 3  -x 3000 -y 5000 -Z 0 -z 1000  -v circle -c green
n -t * -s 4  -x 3000 -y 3000 -Z 0 -z 1000  -v circle -c green
n -t * -s 5  -x 3000 -y 1000 -Z 0 -z 1000  -v circle -c green
n -t * -s 6  -x 5000 -y 5000 -Z 0 -z 1000  -v circle -c green
n -t * -s 7  -x 5000 -y 3000 -Z 0 -z 1000  -v circle -c green
n -t * -s 8  -x 5000 -y 1000 -Z 0 -z 1000  -v circle -c green
n -t * -s 9  -x 7000 -y 5000 -Z 0 -z 1000  -v circle -c green
n -t * -s 10  -x 7000 -y 3000 -Z 0 -z 1000  -v circle -c green
n -t * -s 11  -x 7000 -y 1000 -Z 0 -z 1000  -v circle -c green
n -t * -s 12  -x 1700 -y 6000 -Z 0 -z 1000  -v circle -c green
n -t * -s 13  -x 4700 -y 6000 -Z 0 -z 1000  -v circle -c green
V -t * -v 1.0a5 -a 0
W -t * -x 10000 -y 6000
A -t * -n 1 -p 0 -o 0xffffffff -c 31 -a 1
A -t * -h 1 -m 2147483647 -s 0
n -t 15.100000 -s 12 -x 1700.000000 -y 6000.000000 -U 0.000000 -V -2.500000 -T 2396.000000
n -t 15.100000 -s 13 -x 4700.000000 -y 6000.000000 -U 0.000000 -V -2.500000 -T 2396.000000
+ -t 21.000025000 -s 3 -d -1 -p vectorbasedforward -e 309 -c 2 -a 0 -i 1 -k MAC 
- -t 21.000025000 -s 3 -d -1 -p vectorbasedforward -e 309 -c 2 -a 0 -i 1 -k MAC
n -t 21.000025000 -s 3 -S COLOR -c red -o yellow
h -t 21.000025000 -s 3 -d -1 -p vectorbasedforward -e 309 -c 2 -a 0 -i 1 -k MAC -R 3000.000000
v -t 21.000025000 -e sim_annotation 21.000025000 1 node 3 sendout packet (vectorbasedforward) 1
n -t 24.559472049 -s 12 -S COLOR -c red -o yellow
r -t 24.559472049 -s 12 -d -1 -p vectorbasedforward -e 300 -c 2 -a 0 -i 1 -k MAC -R 3000.000000
v -t 24.559472049 -e sim_annotation 24.559472049 2 node 12 receive packet(vectorbasedforward) 1
n -t 24.781938897 -s 13 -S COLOR -c red -o yellow
r -t 24.781938897 -s 13 -d -1 -p vectorbasedforward -e 300 -c 2 -a 0 -i 1 -k MAC -R 3000.000000
v -t 24.781938897 -e sim_annotation 24.781938897 3 node 13 receive packet(vectorbasedforward) 1
n -t 24.805358333 -s 0 -S COLOR -c red -o yellow
r -t 24.805358333 -s 0 -d -1 -p vectorbasedforward -e 300 -c 2 -a 0 -i 1 -k MAC -R 3000.000000
v -t 24.805358333 -e sim_annotation 24.805358333 4 node 0 receive packet(vectorbasedforward) 1
n -t 24.805358333 -s 4 -S COLOR -c red -o yellow
r -t 24.805358333 -s 4 -d -1 -p vectorbasedforward -e 300 -c 2 -a 0 -i 1 -k MAC -R 3000.000000
v -t 24.805358333 -e sim_annotation 24.805358333 5 node 4 receive packet(vectorbasedforward) 1
n -t 24.805358333 -s 6 -S COLOR -c red -o yellow
r -t 24.805358333 -s 6 -d -1 -p vectorbasedforward -e 300 -c 2 -a 0 -i 1 -k MAC -R 3000.000000
v -t 24.805358333 -e sim_annotation 24.805358333 6 node 6 receive packet(vectorbasedforward) 1
n -t 25.357643083 -s 1 -S COLOR -c red -o yellow
r -t 25.357643083 -s 1 -d -1 -p vectorbasedforward -e 300 -c 2 -a 0 -i 1 -k MAC -R 3000.000000
v -t 25.357643083 -e sim_annotation 25.357643083 7 node 1 receive packet(vectorbasedforward) 1
n -t 25.357643083 -s 7 -S COLOR -c red -o yellow
r -t 25.357643083 -s 7 -d -1 -p vectorbasedforward -e 300 -c 2 -a 0 -i 1 -k MAC -R 3000.000000
v -t 25.357643083 -e sim_annotation 25.357643083 8 node 7 receive packet(vectorbasedforward) 1
+ -t 29.000025000 -s 6 -d -1 -p vectorbasedforward -e 309 -c 2 -a 0 -i 2 -k MAC 
- -t 29.000025000 -s 6 -d -1 -p vectorbasedforward -e 309 -c 2 -a 0 -i 2 -k MAC
n -t 29.000025000 -s 6 -S COLOR -c red -o yellow
h -t 29.000025000 -s 6 -d -1 -p vectorbasedforward -e 309 -c 2 -a 0 -i 2 -k MAC -R 3000.000000
v -t 29.000025000 -e sim_annotation 29.000025000 9 node 6 sendout packet (vectorbasedforward) 2
r -t 32.145888633 -s 13 -d -1 -p vectorbasedforward -e 300 -c 2 -a 0 -i 2 -k MAC -R 3000.000000
v -t 32.145888633 -e sim_annotation 32.145888633 10 node 13 receive packet(vectorbasedforward) 2
n -t 32.805358333 -s 3 -S COLOR -c red -o yellow
r -t 32.805358333 -s 3 -d -1 -p vectorbasedforward -e 300 -c 2 -a 0 -i 2 -k MAC -R 3000.000000
v -t 32.805358333 -e sim_annotation 32.805358333 11 node 3 receive packet(vectorbasedforward) 2
r -t 32.805358333 -s 7 -d -1 -p vectorbasedforward -e 300 -c 2 -a 0 -i 2 -k MAC -R 3000.000000
v -t 32.805358333 -e sim_annotation 32.805358333 12 node 7 receive packet(vectorbasedforward) 2
n -t 32.805358333 -s 9 -S COLOR -c red -o yellow
r -t 32.805358333 -s 9 -d -1 -p vectorbasedforward -e 300 -c 2 -a 0 -i 2 -k MAC -R 3000.000000
v -t 32.805358333 -e sim_annotation 32.805358333 13 node 9 receive packet(vectorbasedforward) 2
+ -t 32.805358333 -s 9 -d -1 -p vectorbasedforward -e 309 -c 2 -a 0 -i 3 -k MAC 
- -t 32.805358333 -s 9 -d -1 -p vectorbasedforward -e 309 -c 2 -a 0 -i 3 -k MAC
n -t 32.805358333 -s 9 -S COLOR -c red -o yellow
h -t 32.805358333 -s 9 -d -1 -p vectorbasedforward -e 309 -c 2 -a 0 -i 3 -k MAC -R 3000.000000
v -t 32.805358333 -e sim_annotation 32.805358333 14 node 9 sendout packet (vectorbasedforward) 3
r -t 33.357643083 -s 4 -d -1 -p vectorbasedforward -e 300 -c 2 -a 0 -i 2 -k MAC -R 3000.000000
v -t 33.357643083 -e sim_annotation 33.357643083 15 node 4 receive packet(vectorbasedforward) 2
n -t 33.357643083 -s 10 -S COLOR -c red -o yellow
r -t 33.357643083 -s 10 -d -1 -p vectorbasedforward -e 300 -c 2 -a 0 -i 2 -k MAC -R 3000.000000
v -t 33.357643083 -e sim_annotation 33.357643083 16 node 10 receive packet(vectorbasedforward) 2
+ -t 34.032116782 -s 4 -d -1 -p vectorbasedforward -e 309 -c 2 -a 0 -i 2 -k MAC 
- -t 34.032116782 -s 4 -d -1 -p vectorbasedforward -e 309 -c 2 -a 0 -i 2 -k MAC
n -t 34.032116782 -s 4 -S COLOR -c red -o yellow
h -t 34.032116782 -s 4 -d -1 -p vectorbasedforward -e 309 -c 2 -a 0 -i 2 -k MAC -R 3000.000000
v -t 34.032116782 -e sim_annotation 34.032116782 17 node 4 sendout packet (vectorbasedforward) 2
r -t 36.610691667 -s 10 -d -1 -p vectorbasedforward -e 300 -c 2 -a 0 -i 3 -k MAC -R 3000.000000
v -t 36.610691667 -e sim_annotation 36.610691667 18 node 10 receive packet(vectorbasedforward) 3
r -t 36.937804385 -s 13 -d -1 -p vectorbasedforward -e 300 -c 2 -a 0 -i 3 -k MAC -R 3000.000000
v -t 36.937804385 -e sim_annotation 36.937804385 19 node 13 receive packet(vectorbasedforward) 3
r -t 37.837450115 -s 3 -d -1 -p vectorbasedforward -e 300 -c 2 -a 0 -i 2 -k MAC -R 3000.000000
v -t 37.837450115 -e sim_annotation 37.837450115 20 node 3 receive packet(vectorbasedforward) 2
r -t 37.837450115 -s 1 -d -1 -p vectorbasedforward -e 300 -c 2 -a 0 -i 2 -k MAC -R 3000.000000
v -t 37.837450115 -e sim_annotation 37.837450115 21 node 1 receive packet(vectorbasedforward) 2
n -t 37.837450115 -s 5 -S COLOR -c red -o yellow
r -t 37.837450115 -s 5 -d -1 -p vectorbasedforward -e 300 -c 2 -a 0 -i 2 -k MAC -R 3000.000000
v -t 37.837450115 -e sim_annotation 37.837450115 22 node 5 receive packet(vectorbasedforward) 2
n -t 38.389734865 -s 2 -S COLOR -c red -o yellow
r -t 38.389734865 -s 2 -d -1 -p vectorbasedforward -e 300 -c 2 -a 0 -i 2 -k MAC -R 3000.000000
v -t 38.389734865 -e sim_annotation 38.389734865 23 node 2 receive packet(vectorbasedforward) 2
r -t 38.389734865 -s 0 -d -1 -p vectorbasedforward -e 300 -c 2 -a 0 -i 2 -k MAC -R 3000.000000
v -t 38.389734865 -e sim_annotation 38.389734865 24 node 0 receive packet(vectorbasedforward) 2
n -t 38.389734865 -s 8 -S COLOR -c red -o yellow
r -t 38.389734865 -s 8 -d -1 -p vectorbasedforward -e 300 -c 2 -a 0 -i 2 -k MAC -R 3000.000000
v -t 38.389734865 -e sim_annotation 38.389734865 25 node 8 receive packet(vectorbasedforward) 2
+ -t 52.333358333 -s 0 -d -1 -p vectorbasedforward -e 309 -c 2 -a 0 -i 4 -k MAC 
- -t 52.333358333 -s 0 -d -1 -p vectorbasedforward -e 309 -c 2 -a 0 -i 4 -k MAC
n -t 52.333358333 -s 0 -S COLOR -c red -o yellow
h -t 52.333358333 -s 0 -d -1 -p vectorbasedforward -e 309 -c 2 -a 0 -i 4 -k MAC -R 3000.000000
v -t 52.333358333 -e sim_annotation 52.333358333 26 node 0 sendout packet (vectorbasedforward) 4
r -t 55.569120288 -s 12 -d -1 -p vectorbasedforward -e 300 -c 2 -a 0 -i 4 -k MAC -R 3000.000000
v -t 55.569120288 -e sim_annotation 55.569120288 27 node 12 receive packet(vectorbasedforward) 4
r -t 56.138691667 -s 1 -d -1 -p vectorbasedforward -e 300 -c 2 -a 0 -i 4 -k MAC -R 3000.000000
v -t 56.138691667 -e sim_annotation 56.138691667 28 node 1 receive packet(vectorbasedforward) 4
r -t 56.138691667 -s 3 -d -1 -p vectorbasedforward -e 300 -c 2 -a 0 -i 4 -k MAC -R 3000.000000
v -t 56.138691667 -e sim_annotation 56.138691667 29 node 3 receive packet(vectorbasedforward) 4
+ -t 56.138691667 -s 3 -d -1 -p vectorbasedforward -e 309 -c 2 -a 0 -i 5 -k MAC 
- -t 56.138691667 -s 3 -d -1 -p vectorbasedforward -e 309 -c 2 -a 0 -i 5 -k MAC
h -t 56.138691667 -s 3 -d -1 -p vectorbasedforward -e 309 -c 2 -a 0 -i 5 -k MAC -R 3000.000000
v -t 56.138691667 -e sim_annotation 56.138691667 30 node 3 sendout packet (vectorbasedforward) 5
r -t 56.690976416 -s 4 -d -1 -p vectorbasedforward -e 300 -c 2 -a 0 -i 4 -k MAC -R 3000.000000
v -t 56.690976416 -e sim_annotation 56.690976416 31 node 4 receive packet(vectorbasedforward) 4
r -t 59.663799792 -s 12 -d -1 -p vectorbasedforward -e 300 -c 2 -a 0 -i 5 -k MAC -R 3000.000000
v -t 59.663799792 -e sim_annotation 59.663799792 32 node 12 receive packet(vectorbasedforward) 5
r -t 59.892241532 -s 13 -d -1 -p vectorbasedforward -e 300 -c 2 -a 0 -i 5 -k MAC -R 3000.000000
v -t 59.892241532 -e sim_annotation 59.892241532 33 node 13 receive packet(vectorbasedforward) 5
r -t 59.944025000 -s 0 -d -1 -p vectorbasedforward -e 300 -c 2 -a 0 -i 5 -k MAC -R 3000.000000
v -t 59.944025000 -e sim_annotation 59.944025000 34 node 0 receive packet(vectorbasedforward) 5
r -t 59.944025000 -s 4 -d -1 -p vectorbasedforward -e 300 -c 2 -a 0 -i 5 -k MAC -R 3000.000000
v -t 59.944025000 -e sim_annotation 59.944025000 35 node 4 receive packet(vectorbasedforward) 5
r -t 59.944025000 -s 6 -d -1 -p vectorbasedforward -e 300 -c 2 -a 0 -i 5 -k MAC -R 3000.000000
v -t 59.944025000 -e sim_annotation 59.944025000 36 node 6 receive packet(vectorbasedforward) 5
r -t 60.496309750 -s 1 -d -1 -p vectorbasedforward -e 300 -c 2 -a 0 -i 5 -k MAC -R 3000.000000
v -t 60.496309750 -e sim_annotation 60.496309750 37 node 1 receive packet(vectorbasedforward) 5
r -t 60.496309750 -s 7 -d -1 -p vectorbasedforward -e 300 -c 2 -a 0 -i 5 -k MAC -R 3000.000000
v -t 60.496309750 -e sim_annotation 60.496309750 38 node 7 receive packet(vectorbasedforward) 5
+ -t 64.333358333 -s 9 -d -1 -p vectorbasedforward -e 309 -c 2 -a 0 -i 7 -k MAC 
- -t 64.333358333 -s 9 -d -1 -p vectorbasedforward -e 309 -c 2 -a 0 -i 7 -k MAC
h -t 64.333358333 -s 9 -d -1 -p vectorbasedforward -e 309 -c 2 -a 0 -i 7 -k MAC -R 3000.000000
v -t 64.333358333 -e sim_annotation 64.333358333 39 node 9 sendout packet (vectorbasedforward) 7
r -t 68.138691667 -s 6 -d -1 -p vectorbasedforward -e 300 -c 2 -a 0 -i 7 -k MAC -R 3000.000000
v -t 68.138691667 -e sim_annotation 68.138691667 40 node 6 receive packet(vectorbasedforward) 7
r -t 68.138691667 -s 10 -d -1 -p vectorbasedforward -e 300 -c 2 -a 0 -i 7 -k MAC -R 3000.000000
v -t 68.138691667 -e sim_annotation 68.138691667 41 node 10 receive packet(vectorbasedforward) 7
r -t 68.446358398 -s 13 -d -1 -p vectorbasedforward -e 300 -c 2 -a 0 -i 7 -k MAC -R 3000.000000
v -t 68.446358398 -e sim_annotation 68.446358398 42 node 13 receive packet(vectorbasedforward) 7
r -t 68.690976416 -s 7 -d -1 -p vectorbasedforward -e 300 -c 2 -a 0 -i 7 -k MAC -R 3000.000000
v -t 68.690976416 -e sim_annotation 68.690976416 43 node 7 receive packet(vectorbasedforward) 7
+ -t 85.666691667 -s 0 -d -1 -p vectorbasedforward -e 309 -c 2 -a 0 -i 8 -k MAC 
- -t 85.666691667 -s 0 -d -1 -p vectorbasedforward -e 309 -c 2 -a 0 -i 8 -k MAC
h -t 85.666691667 -s 0 -d -1 -p vectorbasedforward -e 309 -c 2 -a 0 -i 8 -k MAC -R 3000.000000
v -t 85.666691667 -e sim_annotation 85.666691667 44 node 0 sendout packet (vectorbasedforward) 8
r -t 88.859274580 -s 12 -d -1 -p vectorbasedforward -e 300 -c 2 -a 0 -i 8 -k MAC -R 3000.000000
v -t 88.859274580 -e sim_annotation 88.859274580 45 node 12 receive packet(vectorbasedforward) 8
r -t 89.472025000 -s 1 -d -1 -p vectorbasedforward -e 300 -c 2 -a 0 -i 8 -k MAC -R 3000.000000
v -t 89.472025000 -e sim_annotation 89.472025000 46 node 1 receive packet(vectorbasedforward) 8
r -t 89.472025000 -s 3 -d -1 -p vectorbasedforward -e 300 -c 2 -a 0 -i 8 -k MAC -R 3000.000000
v -t 89.472025000 -e sim_annotation 89.472025000 47 node 3 receive packet(vectorbasedforward) 8
+ -t 89.472025000 -s 3 -d -1 -p vectorbasedforward -e 309 -c 2 -a 0 -i 9 -k MAC 
- -t 89.472025000 -s 3 -d -1 -p vectorbasedforward -e 309 -c 2 -a 0 -i 9 -k MAC
h -t 89.472025000 -s 3 -d -1 -p vectorbasedforward -e 309 -c 2 -a 0 -i 9 -k MAC -R 3000.000000
v -t 89.472025000 -e sim_annotation 89.472025000 48 node 3 sendout packet (vectorbasedforward) 9
r -t 90.024309750 -s 4 -d -1 -p vectorbasedforward -e 300 -c 2 -a 0 -i 8 -k MAC -R 3000.000000
v -t 90.024309750 -e sim_annotation 90.024309750 49 node 4 receive packet(vectorbasedforward) 8
r -t 92.966594718 -s 12 -d -1 -p vectorbasedforward -e 300 -c 2 -a 0 -i 9 -k MAC -R 3000.000000
v -t 92.966594718 -e sim_annotation 92.966594718 50 node 12 receive packet(vectorbasedforward) 9
r -t 93.200600569 -s 13 -d -1 -p vectorbasedforward -e 300 -c 2 -a 0 -i 9 -k MAC -R 3000.000000
v -t 93.200600569 -e sim_annotation 93.200600569 51 node 13 receive packet(vectorbasedforward) 9
r -t 93.277358333 -s 0 -d -1 -p vectorbasedforward -e 300 -c 2 -a 0 -i 9 -k MAC -R 3000.000000
v -t 93.277358333 -e sim_annotation 93.277358333 52 node 0 receive packet(vectorbasedforward) 9
r -t 93.277358333 -s 4 -d -1 -p vectorbasedforward -e 300 -c 2 -a 0 -i 9 -k MAC -R 3000.000000
v -t 93.277358333 -e sim_annotation 93.277358333 53 node 4 receive packet(vectorbasedforward) 9
r -t 93.277358333 -s 6 -d -1 -p vectorbasedforward -e 300 -c 2 -a 0 -i 9 -k MAC -R 3000.000000
v -t 93.277358333 -e sim_annotation 93.277358333 54 node 6 receive packet(vectorbasedforward) 9
r -t 93.829643083 -s 1 -d -1 -p vectorbasedforward -e 300 -c 2 -a 0 -i 9 -k MAC -R 3000.000000
v -t 93.829643083 -e sim_annotation 93.829643083 55 node 1 receive packet(vectorbasedforward) 9
r -t 93.829643083 -s 7 -d -1 -p vectorbasedforward -e 300 -c 2 -a 0 -i 9 -k MAC -R 3000.000000
v -t 93.829643083 -e sim_annotation 93.829643083 56 node 7 receive packet(vectorbasedforward) 9
+ -t 95.666691667 -s 6 -d -1 -p vectorbasedforward -e 309 -c 2 -a 0 -i 10 -k MAC 
- -t 95.666691667 -s 6 -d -1 -p vectorbasedforward -e 309 -c 2 -a 0 -i 10 -k MAC
h -t 95.666691667 -s 6 -d -1 -p vectorbasedforward -e 309 -c 2 -a 0 -i 10 -k MAC -R 3000.000000
v -t 95.666691667 -e sim_annotation 95.666691667 57 node 6 sendout packet (vectorbasedforward) 10
r -t 98.707407663 -s 13 -d -1 -p vectorbasedforward -e 300 -c 2 -a 0 -i 10 -k MAC -R 3000.000000
v -t 98.707407663 -e sim_annotation 98.707407663 58 node 13 receive packet(vectorbasedforward) 10
r -t 99.472025000 -s 3 -d -1 -p vectorbasedforward -e 300 -c 2 -a 0 -i 10 -k MAC -R 3000.000000
v -t 99.472025000 -e sim_annotation 99.472025000 59 node 3 receive packet(vectorbasedforward) 10
r -t 99.472025000 -s 7 -d -1 -p vectorbasedforward -e 300 -c 2 -a 0 -i 10 -k MAC -R 3000.000000
v -t 99.472025000 -e sim_annotation 99.472025000 60 node 7 receive packet(vectorbasedforward) 10
r -t 99.472025000 -s 9 -d -1 -p vectorbasedforward -e 300 -c 2 -a 0 -i 10 -k MAC -R 3000.000000
v -t 99.472025000 -e sim_annotation 99.472025000 61 node 9 receive packet(vectorbasedforward) 10
+ -t 99.472025000 -s 9 -d -1 -p vectorbasedforward -e 309 -c 2 -a 0 -i 11 -k MAC 
- -t 99.472025000 -s 9 -d -1 -p vectorbasedforward -e 309 -c 2 -a 0 -i 11 -k MAC
h -t 99.472025000 -s 9 -d -1 -p vectorbasedforward -e 309 -c 2 -a 0 -i 11 -k MAC -R 3000.000000
v -t 99.472025000 -e sim_annotation 99.472025000 62 node 9 sendout packet (vectorbasedforward) 11
r -t 100.024309750 -s 4 -d -1 -p vectorbasedforward -e 300 -c 2 -a 0 -i 10 -k MAC -R 3000.000000
v -t 100.024309750 -e sim_annotation 100.024309750 63 node 4 receive packet(vectorbasedforward) 10
r -t 100.024309750 -s 10 -d -1 -p vectorbasedforward -e 300 -c 2 -a 0 -i 10 -k MAC -R 3000.000000
v -t 100.024309750 -e sim_annotation 100.024309750 64 node 10 receive packet(vectorbasedforward) 10
+ -t 100.698783449 -s 4 -d -1 -p vectorbasedforward -e 309 -c 2 -a 0 -i 10 -k MAC 
- -t 100.698783449 -s 4 -d -1 -p vectorbasedforward -e 309 -c 2 -a 0 -i 10 -k MAC
h -t 100.698783449 -s 4 -d -1 -p vectorbasedforward -e 309 -c 2 -a 0 -i 10 -k MAC -R 3000.000000
v -t 100.698783449 -e sim_annotation 100.698783449 65 node 4 sendout packet (vectorbasedforward) 10
r -t 103.277358333 -s 10 -d -1 -p vectorbasedforward -e 300 -c 2 -a 0 -i 11 -k MAC -R 3000.000000
v -t 103.277358333 -e sim_annotation 103.277358333 66 node 10 receive packet(vectorbasedforward) 11
r -t 103.565085197 -s 13 -d -1 -p vectorbasedforward -e 300 -c 2 -a 0 -i 11 -k MAC -R 3000.000000
v -t 103.565085197 -e sim_annotation 103.565085197 67 node 13 receive packet(vectorbasedforward) 11
r -t 104.504116782 -s 3 -d -1 -p vectorbasedforward -e 300 -c 2 -a 0 -i 10 -k MAC -R 3000.000000
v -t 104.504116782 -e sim_annotation 104.504116782 68 node 3 receive packet(vectorbasedforward) 10
r -t 104.504116782 -s 1 -d -1 -p vectorbasedforward -e 300 -c 2 -a 0 -i 10 -k MAC -R 3000.000000
v -t 104.504116782 -e sim_annotation 104.504116782 69 node 1 receive packet(vectorbasedforward) 10
r -t 104.504116782 -s 5 -d -1 -p vectorbasedforward -e 300 -c 2 -a 0 -i 10 -k MAC -R 3000.000000
v -t 104.504116782 -e sim_annotation 104.504116782 70 node 5 receive packet(vectorbasedforward) 10
r -t 105.056401532 -s 2 -d -1 -p vectorbasedforward -e 300 -c 2 -a 0 -i 10 -k MAC -R 3000.000000
v -t 105.056401532 -e sim_annotation 105.056401532 71 node 2 receive packet(vectorbasedforward) 10
r -t 105.056401532 -s 0 -d -1 -p vectorbasedforward -e 300 -c 2 -a 0 -i 10 -k MAC -R 3000.000000
v -t 105.056401532 -e sim_annotation 105.056401532 72 node 0 receive packet(vectorbasedforward) 10
r -t 105.056401532 -s 8 -d -1 -p vectorbasedforward -e 300 -c 2 -a 0 -i 10 -k MAC -R 3000.000000
v -t 105.056401532 -e sim_annotation 105.056401532 73 node 8 receive packet(vectorbasedforward) 10
+ -t 105.868340428 -s 2 -d -1 -p vectorbasedforward -e 309 -c 2 -a 0 -i 10 -k MAC 
- -t 105.868340428 -s 2 -d -1 -p vectorbasedforward -e 309 -c 2 -a 0 -i 10 -k MAC
n -t 105.868340428 -s 2 -S COLOR -c red -o yellow
h -t 105.868340428 -s 2 -d -1 -p vectorbasedforward -e 309 -c 2 -a 0 -i 10 -k MAC -R 3000.000000
v -t 105.868340428 -e sim_annotation 105.868340428 74 node 2 sendout packet (vectorbasedforward) 10
r -t 109.673673762 -s 1 -d -1 -p vectorbasedforward -e 300 -c 2 -a 0 -i 10 -k MAC -R 3000.000000
v -t 109.673673762 -e sim_annotation 109.673673762 75 node 1 receive packet(vectorbasedforward) 10
r -t 109.673673762 -s 5 -d -1 -p vectorbasedforward -e 300 -c 2 -a 0 -i 10 -k MAC -R 3000.000000
v -t 109.673673762 -e sim_annotation 109.673673762 76 node 5 receive packet(vectorbasedforward) 10
r -t 110.225958511 -s 4 -d -1 -p vectorbasedforward -e 300 -c 2 -a 0 -i 10 -k MAC -R 3000.000000
v -t 110.225958511 -e sim_annotation 110.225958511 77 node 4 receive packet(vectorbasedforward) 10
+ -t 119.000025000 -s 0 -d -1 -p vectorbasedforward -e 309 -c 2 -a 0 -i 12 -k MAC 
- -t 119.000025000 -s 0 -d -1 -p vectorbasedforward -e 309 -c 2 -a 0 -i 12 -k MAC
h -t 119.000025000 -s 0 -d -1 -p vectorbasedforward -e 309 -c 2 -a 0 -i 12 -k MAC -R 3000.000000
v -t 119.000025000 -e sim_annotation 119.000025000 78 node 0 sendout packet (vectorbasedforward) 12
r -t 122.151230408 -s 12 -d -1 -p vectorbasedforward -e 300 -c 2 -a 0 -i 12 -k MAC -R 3000.000000
v -t 122.151230408 -e sim_annotation 122.151230408 79 node 12 receive packet(vectorbasedforward) 12
r -t 122.805358333 -s 1 -d -1 -p vectorbasedforward -e 300 -c 2 -a 0 -i 12 -k MAC -R 3000.000000
v -t 122.805358333 -e sim_annotation 122.805358333 80 node 1 receive packet(vectorbasedforward) 12
r -t 122.805358333 -s 3 -d -1 -p vectorbasedforward -e 300 -c 2 -a 0 -i 12 -k MAC -R 3000.000000
v -t 122.805358333 -e sim_annotation 122.805358333 81 node 3 receive packet(vectorbasedforward) 12
+ -t 122.805358333 -s 3 -d -1 -p vectorbasedforward -e 309 -c 2 -a 0 -i 13 -k MAC 
- -t 122.805358333 -s 3 -d -1 -p vectorbasedforward -e 309 -c 2 -a 0 -i 13 -k MAC
h -t 122.805358333 -s 3 -d -1 -p vectorbasedforward -e 309 -c 2 -a 0 -i 13 -k MAC -R 3000.000000
v -t 122.805358333 -e sim_annotation 122.805358333 82 node 3 sendout packet (vectorbasedforward) 13
r -t 123.357643083 -s 4 -d -1 -p vectorbasedforward -e 300 -c 2 -a 0 -i 12 -k MAC -R 3000.000000
v -t 123.357643083 -e sim_annotation 123.357643083 83 node 4 receive packet(vectorbasedforward) 12
r -t 126.271558399 -s 12 -d -1 -p vectorbasedforward -e 300 -c 2 -a 0 -i 13 -k MAC -R 3000.000000
v -t 126.271558399 -e sim_annotation 126.271558399 84 node 12 receive packet(vectorbasedforward) 13
r -t 126.510957581 -s 13 -d -1 -p vectorbasedforward -e 300 -c 2 -a 0 -i 13 -k MAC -R 3000.000000
v -t 126.510957581 -e sim_annotation 126.510957581 85 node 13 receive packet(vectorbasedforward) 13
r -t 126.610691667 -s 0 -d -1 -p vectorbasedforward -e 300 -c 2 -a 0 -i 13 -k MAC -R 3000.000000
v -t 126.610691667 -e sim_annotation 126.610691667 86 node 0 receive packet(vectorbasedforward) 13
r -t 126.610691667 -s 4 -d -1 -p vectorbasedforward -e 300 -c 2 -a 0 -i 13 -k MAC -R 3000.000000
v -t 126.610691667 -e sim_annotation 126.610691667 87 node 4 receive packet(vectorbasedforward) 13
r -t 126.610691667 -s 6 -d -1 -p vectorbasedforward -e 300 -c 2 -a 0 -i 13 -k MAC -R 3000.000000
v -t 126.610691667 -e sim_annotation 126.610691667 88 node 6 receive packet(vectorbasedforward) 13
r -t 127.162976416 -s 1 -d -1 -p vectorbasedforward -e 300 -c 2 -a 0 -i 13 -k MAC -R 3000.000000
v -t 127.162976416 -e sim_annotation 127.162976416 89 node 1 receive packet(vectorbasedforward) 13
r -t 127.162976416 -s 7 -d -1 -p vectorbasedforward -e 300 -c 2 -a 0 -i 13 -k MAC -R 3000.000000
v -t 127.162976416 -e sim_annotation 127.162976416 90 node 7 receive packet(vectorbasedforward) 13
+ -t 129.000025000 -s 6 -d -1 -p vectorbasedforward -e 309 -c 2 -a 0 -i 14 -k MAC 
- -t 129.000025000 -s 6 -d -1 -p vectorbasedforward -e 309 -c 2 -a 0 -i 14 -k MAC
h -t 129.000025000 -s 6 -d -1 -p vectorbasedforward -e 309 -c 2 -a 0 -i 14 -k MAC -R 3000.000000
v -t 129.000025000 -e sim_annotation 129.000025000 91 node 6 sendout packet (vectorbasedforward) 14
r -t 131.989103319 -s 13 -d -1 -p vectorbasedforward -e 300 -c 2 -a 0 -i 14 -k MAC -R 3000.000000
v -t 131.989103319 -e sim_annotation 131.989103319 92 node 13 receive packet(vectorbasedforward) 14
r -t 132.805358333 -s 3 -d -1 -p vectorbasedforward -e 300 -c 2 -a 0 -i 14 -k MAC -R 3000.000000
v -t 132.805358333 -e sim_annotation 132.805358333 93 node 3 receive packet(vectorbasedforward) 14
r -t 132.805358333 -s 7 -d -1 -p vectorbasedforward -e 300 -c 2 -a 0 -i 14 -k MAC -R 3000.000000
v -t 132.805358333 -e sim_annotation 132.805358333 94 node 7 receive packet(vectorbasedforward) 14
r -t 132.805358333 -s 9 -d -1 -p vectorbasedforward -e 300 -c 2 -a 0 -i 14 -k MAC -R 3000.000000
v -t 132.805358333 -e sim_annotation 132.805358333 95 node 9 receive packet(vectorbasedforward) 14
+ -t 132.805358333 -s 9 -d -1 -p vectorbasedforward -e 309 -c 2 -a 0 -i 15 -k MAC 
- -t 132.805358333 -s 9 -d -1 -p vectorbasedforward -e 309 -c 2 -a 0 -i 15 -k MAC
h -t 132.805358333 -s 9 -d -1 -p vectorbasedforward -e 309 -c 2 -a 0 -i 15 -k MAC -R 3000.000000
v -t 132.805358333 -e sim_annotation 132.805358333 96 node 9 sendout packet (vectorbasedforward) 15
r -t 133.357643083 -s 4 -d -1 -p vectorbasedforward -e 300 -c 2 -a 0 -i 14 -k MAC -R 3000.000000
v -t 133.357643083 -e sim_annotation 133.357643083 97 node 4 receive packet(vectorbasedforward) 14
r -t 133.357643083 -s 10 -d -1 -p vectorbasedforward -e 300 -c 2 -a 0 -i 14 -k MAC -R 3000.000000
v -t 133.357643083 -e sim_annotation 133.357643083 98 node 10 receive packet(vectorbasedforward) 14
+ -t 134.032116782 -s 4 -d -1 -p vectorbasedforward -e 309 -c 2 -a 0 -i 14 -k MAC 
- -t 134.032116782 -s 4 -d -1 -p vectorbasedforward -e 309 -c 2 -a 0 -i 14 -k MAC
h -t 134.032116782 -s 4 -d -1 -p vectorbasedforward -e 309 -c 2 -a 0 -i 14 -k MAC -R 3000.000000
v -t 134.032116782 -e sim_annotation 134.032116782 99 node 4 sendout packet (vectorbasedforward) 14
r -t 136.610691667 -s 10 -d -1 -p vectorbasedforward -e 300 -c 2 -a 0 -i 15 -k MAC -R 3000.000000
v -t 136.610691667 -e sim_annotation 136.610691667 100 node 10 receive packet(vectorbasedforward) 15
r -t 136.881251396 -s 13 -d -1 -p vectorbasedforward -e 300 -c 2 -a 0 -i 15 -k MAC -R 3000.000000
v -t 136.881251396 -e sim_annotation 136.881251396 101 node 13 receive packet(vectorbasedforward) 15
r -t 137.837450115 -s 3 -d -1 -p vectorbasedforward -e 300 -c 2 -a 0 -i 14 -k MAC -R 3000.000000
v -t 137.837450115 -e sim_annotation 137.837450115 102 node 3 receive packet(vectorbasedforward) 14
r -t 137.837450115 -s 1 -d -1 -p vectorbasedforward -e 300 -c 2 -a 0 -i 14 -k MAC -R 3000.000000
v -t 137.837450115 -e sim_annotation 137.837450115 103 node 1 receive packet(vectorbasedforward) 14
r -t 137.837450115 -s 5 -d -1 -p vectorbasedforward -e 300 -c 2 -a 0 -i 14 -k MAC -R 3000.000000
v -t 137.837450115 -e sim_annotation 137.837450115 104 node 5 receive packet(vectorbasedforward) 14
r -t 138.389734865 -s 2 -d -1 -p vectorbasedforward -e 300 -c 2 -a 0 -i 14 -k MAC -R 3000.000000
v -t 138.389734865 -e sim_annotation 138.389734865 105 node 2 receive packet(vectorbasedforward) 14
r -t 138.389734865 -s 0 -d -1 -p vectorbasedforward -e 300 -c 2 -a 0 -i 14 -k MAC -R 3000.000000
v -t 138.389734865 -e sim_annotation 138.389734865 106 node 0 receive packet(vectorbasedforward) 14
r -t 138.389734865 -s 8 -d -1 -p vectorbasedforward -e 300 -c 2 -a 0 -i 14 -k MAC -R 3000.000000
v -t 138.389734865 -e sim_annotation 138.389734865 107 node 8 receive packet(vectorbasedforward) 14
+ -t 139.201673762 -s 2 -d -1 -p vectorbasedforward -e 309 -c 2 -a 0 -i 14 -k MAC 
- -t 139.201673762 -s 2 -d -1 -p vectorbasedforward -e 309 -c 2 -a 0 -i 14 -k MAC
h -t 139.201673762 -s 2 -d -1 -p vectorbasedforward -e 309 -c 2 -a 0 -i 14 -k MAC -R 3000.000000
v -t 139.201673762 -e sim_annotation 139.201673762 108 node 2 sendout packet (vectorbasedforward) 14
r -t 143.007007095 -s 1 -d -1 -p vectorbasedforward -e 300 -c 2 -a 0 -i 14 -k MAC -R 3000.000000
v -t 143.007007095 -e sim_annotation 143.007007095 109 node 1 receive packet(vectorbasedforward) 14
r -t 143.007007095 -s 5 -d -1 -p vectorbasedforward -e 300 -c 2 -a 0 -i 14 -k MAC -R 3000.000000
v -t 143.007007095 -e sim_annotation 143.007007095 110 node 5 receive packet(vectorbasedforward) 14
r -t 143.559291845 -s 4 -d -1 -p vectorbasedforward -e 300 -c 2 -a 0 -i 14 -k MAC -R 3000.000000
v -t 143.559291845 -e sim_annotation 143.559291845 111 node 4 receive packet(vectorbasedforward) 14
+ -t 152.333358333 -s 0 -d -1 -p vectorbasedforward -e 309 -c 2 -a 0 -i 16 -k MAC 
- -t 152.333358333 -s 0 -d -1 -p vectorbasedforward -e 309 -c 2 -a 0 -i 16 -k MAC
h -t 152.333358333 -s 0 -d -1 -p vectorbasedforward -e 309 -c 2 -a 0 -i 16 -k MAC -R 3000.000000
v -t 152.333358333 -e sim_annotation 152.333358333 112 node 0 sendout packet (vectorbasedforward) 16
r -t 155.445337300 -s 12 -d -1 -p vectorbasedforward -e 300 -c 2 -a 0 -i 16 -k MAC -R 3000.000000
v -t 155.445337300 -e sim_annotation 155.445337300 113 node 12 receive packet(vectorbasedforward) 16
r -t 156.138691667 -s 1 -d -1 -p vectorbasedforward -e 300 -c 2 -a 0 -i 16 -k MAC -R 3000.000000
v -t 156.138691667 -e sim_annotation 156.138691667 114 node 1 receive packet(vectorbasedforward) 16
r -t 156.138691667 -s 3 -d -1 -p vectorbasedforward -e 300 -c 2 -a 0 -i 16 -k MAC -R 3000.000000
v -t 156.138691667 -e sim_annotation 156.138691667 115 node 3 receive packet(vectorbasedforward) 16
+ -t 156.138691667 -s 3 -d -1 -p vectorbasedforward -e 309 -c 2 -a 0 -i 17 -k MAC 
- -t 156.138691667 -s 3 -d -1 -p vectorbasedforward -e 309 -c 2 -a 0 -i 17 -k MAC
h -t 156.138691667 -s 3 -d -1 -p vectorbasedforward -e 309 -c 2 -a 0 -i 17 -k MAC -R 3000.000000
v -t 156.138691667 -e sim_annotation 156.138691667 116 node 3 sendout packet (vectorbasedforward) 17
r -t 156.690976416 -s 4 -d -1 -p vectorbasedforward -e 300 -c 2 -a 0 -i 16 -k MAC -R 3000.000000
v -t 156.690976416 -e sim_annotation 156.690976416 117 node 4 receive packet(vectorbasedforward) 16
r -t 159.578881500 -s 12 -d -1 -p vectorbasedforward -e 300 -c 2 -a 0 -i 17 -k MAC -R 3000.000000
v -t 159.578881500 -e sim_annotation 159.578881500 118 node 12 receive packet(vectorbasedforward) 17
r -t 159.823426133 -s 13 -d -1 -p vectorbasedforward -e 300 -c 2 -a 0 -i 17 -k MAC -R 3000.000000
v -t 159.823426133 -e sim_annotation 159.823426133 119 node 13 receive packet(vectorbasedforward) 17
r -t 159.944025000 -s 0 -d -1 -p vectorbasedforward -e 300 -c 2 -a 0 -i 17 -k MAC -R 3000.000000
v -t 159.944025000 -e sim_annotation 159.944025000 120 node 0 receive packet(vectorbasedforward) 17
r -t 159.944025000 -s 4 -d -1 -p vectorbasedforward -e 300 -c 2 -a 0 -i 17 -k MAC -R 3000.000000
v -t 159.944025000 -e sim_annotation 159.944025000 121 node 4 receive packet(vectorbasedforward) 17
r -t 159.944025000 -s 6 -d -1 -p vectorbasedforward -e 300 -c 2 -a 0 -i 17 -k MAC -R 3000.000000
v -t 159.944025000 -e sim_annotation 159.944025000 122 node 6 receive packet(vectorbasedforward) 17
r -t 160.496309750 -s 1 -d -1 -p vectorbasedforward -e 300 -c 2 -a 0 -i 17 -k MAC -R 3000.000000
v -t 160.496309750 -e sim_annotation 160.496309750 123 node 1 receive packet(vectorbasedforward) 17
r -t 160.496309750 -s 7 -d -1 -p vectorbasedforward -e 300 -c 2 -a 0 -i 17 -k MAC -R 3000.000000
v -t 160.496309750 -e sim_annotation 160.496309750 124 node 7 receive packet(vectorbasedforward) 17
+ -t 162.333358333 -s 6 -d -1 -p vectorbasedforward -e 309 -c 2 -a 0 -i 18 -k MAC 
- -t 162.333358333 -s 6 -d -1 -p vectorbasedforward -e 309 -c 2 -a 0 -i 18 -k MAC
h -t 162.333358333 -s 6 -d -1 -p vectorbasedforward -e 309 -c 2 -a 0 -i 18 -k MAC -R 3000.000000
v -t 162.333358333 -e sim_annotation 162.333358333 125 node 6 sendout packet (vectorbasedforward) 18