vectorbased
M 0.0 nn 14 x 10000 y 6000 z 0
M 0.0 prop Propagation/UnderwaterPropagation ant Antenna/OmniAntenna
M 15.10000 12 (1700.00, 6000.00, 0.00), (1700.00, 10.00), 2.50
M 15.10000 13 (4700.00, 6000.00, 0.00), (4700.00, 10.00), 2.50
M 15.10000 12 (1700.00, 6000.00, 0.00), (1700.00, 10.00), 2.50
M 15.10000 13 (4700.00, 6000.00, 0.00), (4700.00, 10.00), 2.50
M 15.10000 12 (1700.00, 6000.00, 0.00), (1700.00, 10.00), 2.50
M 15.10000 13 (4700.00, 6000.00, 0.00), (4700.00, 10.00), 2.50
M 15.10000 12 (1700.00, 6000.00, 0.00), (1700.00, 10.00), 2.50
M 15.10000 13 (4700.00, 6000.00, 0.00), (4700.00, 10.00), 2.50
M 15.10000 12 (1700.00, 6000.00, 0.00), (1700.00, 10.00), 2.50
M 15.10000 13 (4700.00, 6000.00, 0.00), (4700.00, 10.00), 2.50
M 15.10000 12 (1700.00, 6000.00, 0.00), (1700.00, 10.00), 2.50
M 15.10000 13 (4700.00, 6000.00, 0.00), (4700.00, 10.00), 2.50
M 15.10000 12 (1700.00, 6000.00, 0.00), (1700.00, 10.00), 2.50
M 15.10000 13 (4700.00, 6000.00, 0.00), (4700.00, 10.00), 2.50
s 21.000025000 _3_ MAC  --- 1 vectorbasedforward 309 [0 3000000 ffff0008 0] [energy 199995.800000 ei 4.200 es 0.000 et 0.000 er 0.000] ------- [60:309 1:0 0 0] 
M 15.10000 12 (1700.00, 6000.00, 0.00), (1700.00, 10.00), 2.50
M 15.10000 13 (4700.00, 6000.00, 0.00), (4700.00, 10.00), 2.50
M 15.10000 12 (1700.00, 6000.00, 0.00), (1700.00, 10.00), 2.50
M 15.10000 13 (4700.00, 6000.00, 0.00), (4700.00, 10.00), 2.50
M 15.10000 12 (1700.00, 6000.00, 0.00), (1700.00, 10.00), 2.50
M 15.10000 13 (4700.00, 6000.00, 0.00), (4700.00, 10.00), 2.50
r 24.559472049 _12_ MAC  --- 1 vectorbasedforward 300 [0 3000000 ffff0008 0] [energy 199993.110506 ei 4.417 es 0.000 et 0.000 er 2.472] ------- [60:300 1:0 0 0] 
r 24.781938897 _13_ MAC  --- 1 vectorbasedforward 300 [0 3000000 ffff0008 0] [energy 199993.066012 ei 4.462 es 0.000 et 0.000 er 2.472] ------- [60:300 1:0 0 0] 
r 24.805358333 _0_ MAC  --- 1 vectorbasedforward 300 [0 3000000 ffff0008 0] [energy 199993.061328 ei 4.467 es 0.000 et 0.000 er 2.472] ------- [60:300 1:0 0 0] 
r 24.805358333 _4_ MAC  --- 1 vectorbasedforward 300 [0 3000000 ffff0008 0] [energy 199993.061328 ei 4.467 es 0.000 et 0.000 er 2.472] ------- [60:300 1:0 0 0] 
r 24.805358333 _6_ MAC  --- 1 vectorbasedforward 300 [0 3000000 ffff0008 0] [energy 199993.061328 ei 4.467 es 0.000 et 0.000 er 2.472] ------- [60:300 1:0 0 0] 
M 15.10000 12 (1700.00, 6000.00, 0.00), (1700.00, 10.00), 2.50
M 15.10000 13 (4700.00, 6000.00, 0.00), (4700.00, 10.00), 2.50
r 25.357643083 _1_ MAC  --- 1 vectorbasedforward 300 [0 3000000 ffff0008 0] [energy 199992.950871 ei 4.577 es 0.000 et 0.000 er 2.472] ------- [60:300 1:0 0 0] 
r 25.357643083 _7_ MAC  --- 1 vectorbasedforward 300 [0 3000000 ffff0008 0] [energy 199992.950871 ei 4.577 es 0.000 et 0.000 er 2.472] ------- [60:300 1:0 0 0] 
M 15.10000 12 (1700.00, 6000.00, 0.00), (1700.00, 10.00), 2.50
M 15.10000 13 (4700.00, 6000.00, 0.00), (4700.00, 10.00), 2.50
M 15.10000 12 (1700.00, 6000.00, 0.00), (1700.00, 10.00), 2.50
M 15.10000 13 (4700.00, 6000.00, 0.00), (4700.00, 10.00), 2.50
M 15.10000 12 (1700.00, 6000.00, 0.00), (1700.00, 10.00), 2.50
M 15.10000 13 (4700.00, 6000.00, 0.00), (4700.00, 10.00), 2.50
M 15.10000 12 (1700.00, 6000.00, 0.00), (1700.00, 10.00), 2.50
M 15.10000 13 (4700.00, 6000.00, 0.00), (4700.00, 10.00), 2.50
s 29.000025000 _6_ MAC  --- 2 vectorbasedforward 309 [0 6000000 ffff0008 0] [energy 199992.222400 ei 5.306 es 0.000 et 0.000 er 2.472] ------- [60:309 2:0 0 0] 
M 15.10000 12 (1700.00, 6000.00, 0.00), (1700.00, 10.00), 2.50
M 15.10000 13 (4700.00, 6000.00, 0.00), (4700.00, 10.00), 2.50
M 15.10000 12 (1700.00, 6000.00, 0.00), (1700.00, 10.00), 2.50
M 15.10000 13 (4700.00, 6000.00, 0.00), (4700.00, 10.00), 2.50
M 15.10000 12 (1700.00, 6000.00, 0.00), (1700.00, 10.00), 2.50
M 15.10000 13 (4700.00, 6000.00, 0.00), (4700.00, 10.00), 2.50
r 32.145888633 _13_ MAC  --- 2 vectorbasedforward 300 [0 6000000 ffff0008 0] [energy 199989.615622 ei 5.440 es 0.000 et 0.000 er 4.944] ------- [60:300 2:0 0 0] 
r 32.805358333 _3_ MAC  --- 2 vectorbasedforward 300 [0 6000000 ffff0008 0] [energy 199917.795728 ei 5.572 es 0.000 et 74.160 er 2.472] ------- [60:300 2:0 0 0] 
r 32.805358333 _7_ MAC  --- 2 vectorbasedforward 300 [0 6000000 ffff0008 0] [energy 199989.483728 ei 5.572 es 0.000 et 0.000 er 4.944] ------- [60:300 2:0 0 0] 
r 32.805358333 _9_ MAC  --- 2 vectorbasedforward 300 [0 6000000 ffff0008 0] [energy 199991.461328 ei 6.067 es 0.000 et 0.000 er 2.472] ------- [60:300 2:0 0 0] 
s 32.805358333 _9_ MAC  --- 3 vectorbasedforward 309 [0 9000000 ffff0008 0] [energy 199991.461328 ei 6.067 es 0.000 et 0.000 er 2.472] ------- [60:309 3:0 0 0] 
M 15.10000 12 (1700.00, 6000.00, 0.00), (1700.00, 10.00), 2.50
M 15.10000 13 (4700.00, 6000.00, 0.00), (4700.00, 10.00), 2.50
r 33.357643083 _4_ MAC  --- 2 vectorbasedforward 300 [0 6000000 ffff0008 0] [energy 199989.373271 ei 5.683 es 0.000 et 0.000 er 4.944] ------- [60:300 2:0 0 0] 
r 33.357643083 _10_ MAC  --- 2 vectorbasedforward 300 [0 6000000 ffff0008 0] [energy 199991.350871 ei 6.177 es 0.000 et 0.000 er 2.472] ------- [60:300 2:0 0 0] 
M 15.10000 12 (1700.00, 6000.00, 0.00), (1700.00, 10.00), 2.50
M 15.10000 13 (4700.00, 6000.00, 0.00), (4700.00, 10.00), 2.50
s 34.032116782 _4_ MAC  --- 2 vectorbasedforward 309 [0 4000000 ffff0008 0] [energy 199989.244800 ei 5.811 es 0.000 et 0.000 er 4.944] ------- [60:309 2:0 0 0] 
M 15.10000 12 (1700.00, 6000.00, 0.00), (1700.00, 10.00), 2.50
M 15.10000 13 (4700.00, 6000.00, 0.00), (4700.00, 10.00), 2.50
M 15.10000 12 (1700.00, 6000.00, 0.00), (1700.00, 10.00), 2.50
M 15.10000 13 (4700.00, 6000.00, 0.00), (4700.00, 10.00), 2.50
r 36.610691667 _10_ MAC  --- 3 vectorbasedforward 300 [0 9000000 ffff0008 0] [energy 199988.722662 ei 6.333 es 0.000 et 0.000 er 4.944] ------- [60:300 3:0 0 0] 
r 36.937804385 _13_ MAC  --- 3 vectorbasedforward 300 [0 9000000 ffff0008 0] [energy 199986.679639 ei 5.904 es 0.000 et 0.000 er 7.416] ------- [60:300 3:0 0 0] 
M 15.10000 12 (1700.00, 6000.00, 0.00), (1700.00, 10.00), 2.50
M 15.10000 13 (4700.00, 6000.00, 0.00), (4700.00, 10.00), 2.50
r 37.837450115 _3_ MAC  --- 2 vectorbasedforward 300 [0 4000000 ffff0008 0] [energy 199914.811710 ei 6.084 es 0.000 et 74.160 er 4.944] ------- [60:300 2:0 0 0] 
r 37.837450115 _1_ MAC  --- 2 vectorbasedforward 300 [0 4000000 ffff0008 0] [energy 199988.477310 ei 6.579 es 0.000 et 0.000 er 4.944] ------- [60:300 2:0 0 0] 
r 37.837450115 _5_ MAC  --- 2 vectorbasedforward 300 [0 4000000 ffff0008 0] [energy 199990.454910 ei 7.073 es 0.000 et 0.000 er 2.472] ------- [60:300 2:0 0 0] 
M 15.10000 12 (1700.00, 6000.00, 0.00), (1700.00, 10.00), 2.50
M 15.10000 13 (4700.00, 6000.00, 0.00), (4700.00, 10.00), 2.50
r 38.389734865 _2_ MAC  --- 2 vectorbasedforward 300 [0 4000000 ffff0008 0] [energy 199990.344453 ei 7.184 es 0.000 et 0.000 er 2.472] ------- [60:300 2:0 0 0] 
r 38.389734865 _0_ MAC  --- 2 vectorbasedforward 300 [0 4000000 ffff0008 0] [energy 199988.366853 ei 6.689 es 0.000 et 0.000 er 4.944] ------- [60:300 2:0 0 0] 
r 38.389734865 _8_ MAC  --- 2 vectorbasedforward 300 [0 4000000 ffff0008 0] [energy 199990.344453 ei 7.184 es 0.000 et 0.000 er 2.472] ------- [60:300 2:0 0 0] 
M 15.10000 12 (1700.00, 6000.00, 0.00), (1700.00, 10.00), 2.50
M 15.10000 13 (4700.00, 6000.00, 0.00), (4700.00, 10.00), 2.50
M 15.10000 12 (1700.00, 6000.00, 0.00), (1700.00, 10.00), 2.50
M 15.10000 13 (4700.00, 6000.00, 0.00), (4700.00, 10.00), 2.50
M 15.10000 12 (1700.00, 6000.00, 0.00), (1700.00, 10.00), 2.50
M 15.10000 13 (4700.00, 6000.00, 0.00), (4700.00, 10.00), 2.50
M 15.10000 12 (1700.00, 6000.00, 0.00), (1700.00, 10.00), 2.50
M 15.10000 13 (4700.00, 6000.00, 0.00), (4700.00, 10.00), 2.50
M 15.10000 12 (1700.00, 6000.00, 0.00), (1700.00, 10.00), 2.50
M 15.10000 13 (4700.00, 6000.00, 0.00), (4700.00, 10.00), 2.50
M 15.10000 12 (1700.00, 6000.00, 0.00), (1700.00, 10.00), 2.50
M 15.10000 13 (4700.00, 6000.00, 0.00), (4700.00, 10.00), 2.50
M 15.10000 12 (1700.00, 6000.00, 0.00), (1700.00, 10.00), 2.50
M 15.10000 13 (4700.00, 6000.00, 0.00), (4700.00, 10.00), 2.50
M 15.10000 12 (1700.00, 6000.00, 0.00), (1700.00, 10.00), 2.50
M 15.10000 13 (4700.00, 6000.00, 0.00), (4700.00, 10.00), 2.50
M 15.10000 12 (1700.00, 6000.00, 0.00), (1700.00, 10.00), 2.50
M 15.10000 13 (4700.00, 6000.00, 0.00), (4700.00, 10.00), 2.50
M 15.10000 12 (1700.00, 6000.00, 0.00), (1700.00, 10.00), 2.50
M 15.10000 13 (4700.00, 6000.00, 0.00), (4700.00, 10.00), 2.50
M 15.10000 12 (1700.00, 6000.00, 0.00), (1700.00, 10.00), 2.50
M 15.10000 13 (4700.00, 6000.00, 0.00), (4700.00, 10.00), 2.50
M 15.10000 12 (1700.00, 6000.00, 0.00), (1700.00, 10.00), 2.50
M 15.10000 13 (4700.00, 6000.00, 0.00), (4700.00, 10.00), 2.50
M 15.10000 12 (1700.00, 6000.00, 0.00), (1700.00, 10.00), 2.50
M 15.10000 13 (4700.00, 6000.00, 0.00), (4700.00, 10.00), 2.50
M 15.10000 12 (1700.00, 6000.00, 0.00), (1700.00, 10.00), 2.50
M 15.10000 13 (4700.00, 6000.00, 0.00), (4700.00, 10.00), 2.50
s 52.333358333 _0_ MAC  --- 4 vectorbasedforward 309 [0 0 ffff0008 0] [energy 199985.644800 ei 9.411 es 0.000 et 0.000 er 4.944] ------- [60:309 4:0 0 0] 
M 15.10000 12 (1700.00, 6000.00, 0.00), (1700.00, 10.00), 2.50
M 15.10000 13 (4700.00, 6000.00, 0.00), (4700.00, 10.00), 2.50
M 15.10000 12 (1700.00, 6000.00, 0.00), (1700.00, 10.00), 2.50
M 15.10000 13 (4700.00, 6000.00, 0.00), (4700.00, 10.00), 2.50
M 15.10000 12 (1700.00, 6000.00, 0.00), (1700.00, 10.00), 2.50
M 15.10000 13 (4700.00, 6000.00, 0.00), (4700.00, 10.00), 2.50
r 55.569120288 _12_ MAC  --- 4 vectorbasedforward 300 [0 0 ffff0008 0] [energy 199984.930976 ei 10.125 es 0.000 et 0.000 er 4.944] ------- [60:300 4:0 0 0] 
M 15.10000 12 (1700.00, 6000.00, 0.00), (1700.00, 10.00), 2.50
M 15.10000 13 (4700.00, 6000.00, 0.00), (4700.00, 10.00), 2.50
r 56.138691667 _1_ MAC  --- 4 vectorbasedforward 300 [0 0 ffff0008 0] [energy 199982.839462 ei 9.745 es 0.000 et 0.000 er 7.416] ------- [60:300 4:0 0 0] 
r 56.138691667 _3_ MAC  --- 4 vectorbasedforward 300 [0 0 ffff0008 0] [energy 199909.173862 ei 9.250 es 0.000 et 74.160 er 7.416] ------- [60:300 4:0 0 0] 
s 56.138691667 _3_ MAC  --- 5 vectorbasedforward 309 [0 3000000 ffff0008 0] [energy 199909.173862 ei 9.250 es 0.000 et 74.160 er 7.416] ------- [60:309 5:0 0 0] 
r 56.690976416 _4_ MAC  --- 4 vectorbasedforward 300 [0 0 ffff0008 0] [energy 199909.063405 ei 9.361 es 0.000 et 74.160 er 7.416] ------- [60:300 4:0 0 0] 
M 15.10000 12 (1700.00, 6000.00, 0.00), (1700.00, 10.00), 2.50
M 15.10000 13 (4700.00, 6000.00, 0.00), (4700.00, 10.00), 2.50
M 15.10000 12 (1700.00, 6000.00, 0.00), (1700.00, 10.00), 2.50
M 15.10000 13 (4700.00, 6000.00, 0.00), (4700.00, 10.00), 2.50
M 15.10000 12 (1700.00, 6000.00, 0.00), (1700.00, 10.00), 2.50
M 15.10000 13 (4700.00, 6000.00, 0.00), (4700.00, 10.00), 2.50
r 59.663799792 _12_ MAC  --- 5 vectorbasedforward 300 [0 3000000 ffff0008 0] [energy 199982.134440 ei 10.450 es 0.000 et 0.000 er 7.416] ------- [60:300 5:0 0 0] 
r 59.892241532 _13_ MAC  --- 5 vectorbasedforward 300 [0 3000000 ffff0008 0] [energy 199980.111152 ei 10.001 es 0.000 et 0.000 er 9.888] ------- [60:300 5:0 0 0] 
r 59.944025000 _0_ MAC  --- 5 vectorbasedforward 300 [0 3000000 ffff0008 0] [energy 199908.412795 ei 10.011 es 0.000 et 74.160 er 7.416] ------- [60:300 5:0 0 0] 
r 59.944025000 _4_ MAC  --- 5 vectorbasedforward 300 [0 3000000 ffff0008 0] [energy 199906.435195 ei 9.517 es 0.000 et 74.160 er 9.888] ------- [60:300 5:0 0 0] 
r 59.944025000 _6_ MAC  --- 5 vectorbasedforward 300 [0 3000000 ffff0008 0] [energy 199906.989560 ei 9.655 es 0.000 et 74.160 er 9.195] ------- [60:300 5:0 0 0] 
M 15.10000 12 (1700.00, 6000.00, 0.00), (1700.00, 10.00), 2.50
M 15.10000 13 (4700.00, 6000.00, 0.00), (4700.00, 10.00), 2.50
r 60.496309750 _1_ MAC  --- 5 vectorbasedforward 300 [0 3000000 ffff0008 0] [energy 199979.990338 ei 10.122 es 0.000 et 0.000 er 9.888] ------- [60:300 5:0 0 0] 
r 60.496309750 _7_ MAC  --- 5 vectorbasedforward 300 [0 3000000 ffff0008 0] [energy 199979.450759 ei 9.987 es 0.000 et 0.000 er 10.562] ------- [60:300 5:0 0 0] 
M 15.10000 12 (1700.00, 6000.00, 0.00), (1700.00, 10.00), 2.50
M 15.10000 13 (4700.00, 6000.00, 0.00), (4700.00, 10.00), 2.50
M 15.10000 12 (1700.00, 6000.00, 0.00), (1700.00, 10.00), 2.50
M 15.10000 13 (4700.00, 6000.00, 0.00), (4700.00, 10.00), 2.50
M 15.10000 12 (1700.00, 6000.00, 0.00), (1700.00, 10.00), 2.50
M 15.10000 13 (4700.00, 6000.00, 0.00), (4700.00, 10.00), 2.50
M 15.10000 12 (1700.00, 6000.00, 0.00), (1700.00, 10.00), 2.50
M 15.10000 13 (4700.00, 6000.00, 0.00), (4700.00, 10.00), 2.50
s 64.333358333 _9_ MAC  --- 7 vectorbasedforward 309 [0 9000000 ffff0008 0] [energy 199911.556800 ei 11.811 es 0.000 et 74.160 er 2.472] ------- [60:309 7:0 0 0] 
M 15.10000 12 (1700.00, 6000.00, 0.00), (1700.00, 10.00), 2.50
M 15.10000 13 (4700.00, 6000.00, 0.00), (4700.00, 10.00), 2.50
M 15.10000 12 (1700.00, 6000.00, 0.00), (1700.00, 10.00), 2.50
M 15.10000 13 (4700.00, 6000.00, 0.00), (4700.00, 10.00), 2.50
M 15.10000 12 (1700.00, 6000.00, 0.00), (1700.00, 10.00), 2.50
M 15.10000 13 (4700.00, 6000.00, 0.00), (4700.00, 10.00), 2.50
M 15.10000 12 (1700.00, 6000.00, 0.00), (1700.00, 10.00), 2.50
M 15.10000 13 (4700.00, 6000.00, 0.00), (4700.00, 10.00), 2.50
r 68.138691667 _6_ MAC  --- 7 vectorbasedforward 300 [0 9000000 ffff0008 0] [energy 199903.373027 ei 10.800 es 0.000 et 74.160 er 11.667] ------- [60:300 7:0 0 0] 
r 68.138691667 _10_ MAC  --- 7 vectorbasedforward 300 [0 9000000 ffff0008 0] [energy 199980.439462 ei 12.145 es 0.000 et 0.000 er 7.416] ------- [60:300 7:0 0 0] 
r 68.446358398 _13_ MAC  --- 7 vectorbasedforward 300 [0 9000000 ffff0008 0] [energy 199976.422728 ei 11.217 es 0.000 et 0.000 er 12.360] ------- [60:300 7:0 0 0] 
r 68.690976416 _7_ MAC  --- 7 vectorbasedforward 300 [0 9000000 ffff0008 0] [energy 199975.834226 ei 11.131 es 0.000 et 0.000 er 13.034] ------- [60:300 7:0 0 0] 
M 15.10000 12 (1700.00, 6000.00, 0.00), (1700.00, 10.00), 2.50
M 15.10000 13 (4700.00, 6000.00, 0.00), (4700.00, 10.00), 2.50
M 15.10000 12 (1700.00, 6000.00, 0.00), (1700.00, 10.00), 2.50
M 15.10000 13 (4700.00, 6000.00, 0.00), (4700.00, 10.00), 2.50
M 15.10000 12 (1700.00, 6000.00, 0.00), (1700.00, 10.00), 2.50
M 15.10000 13 (4700.00, 6000.00, 0.00), (4700.00, 10.00), 2.50
M 15.10000 12 (1700.00, 6000.00, 0.00), (1700.00, 10.00), 2.50
M 15.10000 13 (4700.00, 6000.00, 0.00), (4700.00, 10.00), 2.50
M 15.10000 12 (1700.00, 6000.00, 0.00), (1700.00, 10.00), 2.50
M 15.10000 13 (4700.00, 6000.00, 0.00), (4700.00, 10.00), 2.50
M 15.10000 12 (1700.00, 6000.00, 0.00), (1700.00, 10.00), 2.50
M 15.10000 13 (4700.00, 6000.00, 0.00), (4700.00, 10.00), 2.50
M 15.10000 12 (1700.00, 6000.00, 0.00), (1700.00, 10.00), 2.50
M 15.10000 13 (4700.00, 6000.00, 0.00), (4700.00, 10.00), 2.50
M 15.10000 12 (1700.00, 6000.00, 0.00), (1700.00, 10.00), 2.50
M 15.10000 13 (4700.00, 6000.00, 0.00), (4700.00, 10.00), 2.50
M 15.10000 12 (1700.00, 6000.00, 0.00), (1700.00, 10.00), 2.50
M 15.10000 13 (4700.00, 6000.00, 0.00), (4700.00, 10.00), 2.50
M 15.10000 12 (1700.00, 6000.00, 0.00), (1700.00, 10.00), 2.50
M 15.10000 13 (4700.00, 6000.00, 0.00), (4700.00, 10.00), 2.50
M 15.10000 12 (1700.00, 6000.00, 0.00), (1700.00, 10.00), 2.50
M 15.10000 13 (4700.00, 6000.00, 0.00), (4700.00, 10.00), 2.50
M 15.10000 12 (1700.00, 6000.00, 0.00), (1700.00, 10.00), 2.50
M 15.10000 13 (4700.00, 6000.00, 0.00), (4700.00, 10.00), 2.50
M 15.10000 12 (1700.00, 6000.00, 0.00), (1700.00, 10.00), 2.50
M 15.10000 13 (4700.00, 6000.00, 0.00), (4700.00, 10.00), 2.50
M 15.10000 12 (1700.00, 6000.00, 0.00), (1700.00, 10.00), 2.50
M 15.10000 13 (4700.00, 6000.00, 0.00), (4700.00, 10.00), 2.50
M 15.10000 12 (1700.00, 6000.00, 0.00), (1700.00, 10.00), 2.50
M 15.10000 13 (4700.00, 6000.00, 0.00), (4700.00, 10.00), 2.50
M 15.10000 12 (1700.00, 6000.00, 0.00), (1700.00, 10.00), 2.50
M 15.10000 13 (4700.00, 6000.00, 0.00), (4700.00, 10.00), 2.50
M 15.10000 12 (1700.00, 6000.00, 0.00), (1700.00, 10.00), 2.50
M 15.10000 13 (4700.00, 6000.00, 0.00), (4700.00, 10.00), 2.50
s 85.666691667 _0_ MAC  --- 8 vectorbasedforward 309 [0 0 ffff0008 0] [energy 199903.401600 ei 15.022 es 0.000 et 74.160 er 7.416] ------- [60:309 8:0 0 0] 
M 15.10000 12 (1700.00, 6000.00, 0.00), (1700.00, 10.00), 2.50
M 15.10000 13 (4700.00, 6000.00, 0.00), (4700.00, 10.00), 2.50
M 15.10000 12 (1700.00, 6000.00, 0.00), (1700.00, 10.00), 2.50
M 15.10000 13 (4700.00, 6000.00, 0.00), (4700.00, 10.00), 2.50
M 15.10000 12 (1700.00, 6000.00, 0.00), (1700.00, 10.00), 2.50
M 15.10000 13 (4700.00, 6000.00, 0.00), (4700.00, 10.00), 2.50
r 88.859274580 _12_ MAC  --- 8 vectorbasedforward 300 [0 0 ffff0008 0] [energy 199974.317745 ei 15.794 es 0.000 et 0.000 er 9.888] ------- [60:300 8:0 0 0] 
M 15.10000 12 (1700.00, 6000.00, 0.00), (1700.00, 10.00), 2.50
M 15.10000 13 (4700.00, 6000.00, 0.00), (4700.00, 10.00), 2.50
r 89.472025000 _1_ MAC  --- 8 vectorbasedforward 300 [0 0 ffff0008 0] [energy 199972.217595 ei 15.422 es 0.000 et 0.000 er 12.360] ------- [60:300 8:0 0 0] 
r 89.472025000 _3_ MAC  --- 8 vectorbasedforward 300 [0 0 ffff0008 0] [energy 199826.863995 ei 14.928 es 0.000 et 148.320 er 9.888] ------- [60:300 8:0 0 0] 
s 89.472025000 _3_ MAC  --- 9 vectorbasedforward 309 [0 3000000 ffff0008 0] [energy 199826.863995 ei 14.928 es 0.000 et 148.320 er 9.888] ------- [60:309 9:0 0 0] 
M 15.10000 12 (1700.00, 6000.00, 0.00), (1700.00, 10.00), 2.50
M 15.10000 13 (4700.00, 6000.00, 0.00), (4700.00, 10.00), 2.50
r 90.024309750 _4_ MAC  --- 8 vectorbasedforward 300 [0 0 ffff0008 0] [energy 199898.441538 ei 15.038 es 0.000 et 74.160 er 12.360] ------- [60:300 8:0 0 0] 
M 15.10000 12 (1700.00, 6000.00, 0.00), (1700.00, 10.00), 2.50
M 15.10000 13 (4700.00, 6000.00, 0.00), (4700.00, 10.00), 2.50
M 15.10000 12 (1700.00, 6000.00, 0.00), (1700.00, 10.00), 2.50
M 15.10000 13 (4700.00, 6000.00, 0.00), (4700.00, 10.00), 2.50
r 92.966594718 _12_ MAC  --- 9 vectorbasedforward 300 [0 3000000 ffff0008 0] [energy 199971.518681 ei 16.121 es 0.000 et 0.000 er 12.360] ------- [60:300 9:0 0 0] 
M 15.10000 12 (1700.00, 6000.00, 0.00), (1700.00, 10.00), 2.50
M 15.10000 13 (4700.00, 6000.00, 0.00), (4700.00, 10.00), 2.50
r 93.200600569 _13_ MAC  --- 9 vectorbasedforward 300 [0 3000000 ffff0008 0] [energy 199969.494280 ei 15.674 es 0.000 et 0.000 er 14.832] ------- [60:300 9:0 0 0] 
r 93.277358333 _0_ MAC  --- 9 vectorbasedforward 300 [0 3000000 ffff0008 0] [energy 199826.102928 ei 15.689 es 0.000 et 148.320 er 9.888] ------- [60:300 9:0 0 0] 
r 93.277358333 _4_ MAC  --- 9 vectorbasedforward 300 [0 3000000 ffff0008 0] [energy 199895.813328 ei 15.195 es 0.000 et 74.160 er 14.832] ------- [60:300 9:0 0 0] 
r 93.277358333 _6_ MAC  --- 9 vectorbasedforward 300 [0 3000000 ffff0008 0] [energy 199896.367694 ei 15.333 es 0.000 et 74.160 er 14.139] ------- [60:300 9:0 0 0] 
r 93.829643083 _1_ MAC  --- 9 vectorbasedforward 300 [0 3000000 ffff0008 0] [energy 199969.368471 ei 15.800 es 0.000 et 0.000 er 14.832] ------- [60:300 9:0 0 0] 
r 93.829643083 _7_ MAC  --- 9 vectorbasedforward 300 [0 3000000 ffff0008 0] [energy 199968.828892 ei 15.665 es 0.000 et 0.000 er 15.506] ------- [60:300 9:0 0 0] 
M 15.10000 12 (1700.00, 6000.00, 0.00), (1700.00, 10.00), 2.50
M 15.10000 13 (4700.00, 6000.00, 0.00), (4700.00, 10.00), 2.50
M 15.10000 12 (1700.00, 6000.00, 0.00), (1700.00, 10.00), 2.50
M 15.10000 13 (4700.00, 6000.00, 0.00), (4700.00, 10.00), 2.50
s 95.666691667 _6_ MAC  --- 10 vectorbasedforward 309 [0 6000000 ffff0008 0] [energy 199896.023165 ei 15.678 es 0.000 et 74.160 er 14.139] ------- [60:309 10:0 0 0] 
M 15.10000 12 (1700.00, 6000.00, 0.00), (1700.00, 10.00), 2.50
M 15.10000 13 (4700.00, 6000.00, 0.00), (4700.00, 10.00), 2.50
M 15.10000 12 (1700.00, 6000.00, 0.00), (1700.00, 10.00), 2.50
M 15.10000 13 (4700.00, 6000.00, 0.00), (4700.00, 10.00), 2.50
M 15.10000 12 (1700.00, 6000.00, 0.00), (1700.00, 10.00), 2.50
M 15.10000 13 (4700.00, 6000.00, 0.00), (4700.00, 10.00), 2.50
r 98.707407663 _13_ MAC  --- 10 vectorbasedforward 300 [0 6000000 ffff0008 0] [energy 199966.415318 ei 16.281 es 0.000 et 0.000 er 17.304] ------- [60:300 10:0 0 0] 
M 15.10000 12 (1700.00, 6000.00, 0.00), (1700.00, 10.00), 2.50
M 15.10000 13 (4700.00, 6000.00, 0.00), (4700.00, 10.00), 2.50
r 99.472025000 _3_ MAC  --- 10 vectorbasedforward 300 [0 6000000 ffff0008 0] [energy 199749.220795 ei 15.939 es 0.000 et 222.480 er 12.360] ------- [60:300 10:0 0 0] 
r 99.472025000 _7_ MAC  --- 10 vectorbasedforward 300 [0 6000000 ffff0008 0] [energy 199965.722816 ei 16.299 es 0.000 et 0.000 er 17.978] ------- [60:300 10:0 0 0] 
r 99.472025000 _9_ MAC  --- 10 vectorbasedforward 300 [0 6000000 ffff0008 0] [energy 199828.819195 ei 17.917 es 0.000 et 148.320 er 4.944] ------- [60:300 10:0 0 0] 
s 99.472025000 _9_ MAC  --- 11 vectorbasedforward 309 [0 9000000 ffff0008 0] [energy 199828.819195 ei 17.917 es 0.000 et 148.320 er 4.944] ------- [60:309 11:0 0 0] 
M 15.10000 12 (1700.00, 6000.00, 0.00), (1700.00, 10.00), 2.50
M 15.10000 13 (4700.00, 6000.00, 0.00), (4700.00, 10.00), 2.50
r 100.024309750 _4_ MAC  --- 10 vectorbasedforward 300 [0 6000000 ffff0008 0] [energy 199892.486338 ei 16.050 es 0.000 et 74.160 er 17.304] ------- [60:300 10:0 0 0] 
r 100.024309750 _10_ MAC  --- 10 vectorbasedforward 300 [0 6000000 ffff0008 0] [energy 199972.084738 ei 18.027 es 0.000 et 0.000 er 9.888] ------- [60:300 10:0 0 0] 
s 100.698783449 _4_ MAC  --- 10 vectorbasedforward 309 [0 4000000 ffff0008 0] [energy 199892.486338 ei 16.050 es 0.000 et 74.160 er 17.304] ------- [60:309 10:0 0 0] 
M 15.10000 12 (1700.00, 6000.00, 0.00), (1700.00, 10.00), 2.50
M 15.10000 13 (4700.00, 6000.00, 0.00), (4700.00, 10.00), 2.50
M 15.10000 12 (1700.00, 6000.00, 0.00), (1700.00, 10.00), 2.50
M 15.10000 13 (4700.00, 6000.00, 0.00), (4700.00, 10.00), 2.50
M 15.10000 12 (1700.00, 6000.00, 0.00), (1700.00, 10.00), 2.50
M 15.10000 13 (4700.00, 6000.00, 0.00), (4700.00, 10.00), 2.50
r 103.277358333 _10_ MAC  --- 11 vectorbasedforward 300 [0 9000000 ffff0008 0] [energy 199969.456528 ei 18.183 es 0.000 et 0.000 er 12.360] ------- [60:300 11:0 0 0] 
r 103.565085197 _13_ MAC  --- 11 vectorbasedforward 300 [0 9000000 ffff0008 0] [energy 199963.466183 ei 16.758 es 0.000 et 0.000 er 19.776] ------- [60:300 11:0 0 0] 
M 15.10000 12 (1700.00, 6000.00, 0.00), (1700.00, 10.00), 2.50
M 15.10000 13 (4700.00, 6000.00, 0.00), (4700.00, 10.00), 2.50
r 104.504116782 _3_ MAC  --- 10 vectorbasedforward 300 [0 4000000 ffff0008 0] [energy 199746.236777 ei 16.451 es 0.000 et 222.480 er 14.832] ------- [60:300 10:0 0 0] 
r 104.504116782 _1_ MAC  --- 10 vectorbasedforward 300 [0 4000000 ffff0008 0] [energy 199965.255977 ei 17.440 es 0.000 et 0.000 er 17.304] ------- [60:300 10:0 0 0] 
r 104.504116782 _5_ MAC  --- 10 vectorbasedforward 300 [0 4000000 ffff0008 0] [energy 199975.143977 ei 19.912 es 0.000 et 0.000 er 4.944] ------- [60:300 10:0 0 0] 
M 15.10000 12 (1700.00, 6000.00, 0.00), (1700.00, 10.00), 2.50
M 15.10000 13 (4700.00, 6000.00, 0.00), (4700.00, 10.00), 2.50
r 105.056401532 _2_ MAC  --- 10 vectorbasedforward 300 [0 4000000 ffff0008 0] [energy 199975.033520 ei 20.022 es 0.000 et 0.000 er 4.944] ------- [60:300 10:0 0 0] 
r 105.056401532 _0_ MAC  --- 10 vectorbasedforward 300 [0 4000000 ffff0008 0] [energy 199821.769520 ei 17.550 es 0.000 et 148.320 er 12.360] ------- [60:300 10:0 0 0] 
r 105.056401532 _8_ MAC  --- 10 vectorbasedforward 300 [0 4000000 ffff0008 0] [energy 199975.033520 ei 20.022 es 0.000 et 0.000 er 4.944] ------- [60:300 10:0 0 0] 
s 105.868340428 _2_ MAC  --- 10 vectorbasedforward 309 [0 2000000 ffff0008 0] [energy 199975.033520 ei 20.022 es 0.000 et 0.000 er 4.944] ------- [60:309 10:0 0 0] 
M 15.10000 12 (1700.00, 6000.00, 0.00), (1700.00, 10.00), 2.50
M 15.10000 13 (4700.00, 6000.00, 0.00), (4700.00, 10.00), 2.50
M 15.10000 12 (1700.00, 6000.00, 0.00), (1700.00, 10.00), 2.50
M 15.10000 13 (4700.00, 6000.00, 0.00), (4700.00, 10.00), 2.50
M 15.10000 12 (1700.00, 6000.00, 0.00), (1700.00, 10.00), 2.50
M 15.10000 13 (4700.00, 6000.00, 0.00), (4700.00, 10.00), 2.50
M 15.10000 12 (1700.00, 6000.00, 0.00), (1700.00, 10.00), 2.50
M 15.10000 13 (4700.00, 6000.00, 0.00), (4700.00, 10.00), 2.50
r 109.673673762 _1_ MAC  --- 10 vectorbasedforward 300 [0 2000000 ffff0008 0] [energy 199962.244465 ei 17.980 es 0.000 et 0.000 er 19.776] ------- [60:300 10:0 0 0] 
r 109.673673762 _5_ MAC  --- 10 vectorbasedforward 300 [0 2000000 ffff0008 0] [energy 199972.132465 ei 20.452 es 0.000 et 0.000 er 7.416] ------- [60:300 10:0 0 0] 
M 15.10000 12 (1700.00, 6000.00, 0.00), (1700.00, 10.00), 2.50
M 15.10000 13 (4700.00, 6000.00, 0.00), (4700.00, 10.00), 2.50
r 110.225958511 _4_ MAC  --- 10 vectorbasedforward 300 [0 2000000 ffff0008 0] [energy 199814.802808 ei 17.101 es 0.000 et 148.320 er 19.776] ------- [60:300 10:0 0 0] 
M 15.10000 12 (1700.00, 6000.00, 0.00), (1700.00, 10.00), 2.50
M 15.10000 13 (4700.00, 6000.00, 0.00), (4700.00, 10.00), 2.50
M 15.10000 12 (1700.00, 6000.00, 0.00), (1700.00, 10.00), 2.50
M 15.10000 13 (4700.00, 6000.00, 0.00), (4700.00, 10.00), 2.50
M 15.10000 12 (1700.00, 6000.00, 0.00), (1700.00, 10.00), 2.50
M 15.10000 13 (4700.00, 6000.00, 0.00), (4700.00, 10.00), 2.50
M 15.10000 12 (1700.00, 6000.00, 0.00), (1700.00, 10.00), 2.50
M 15.10000 13 (4700.00, 6000.00, 0.00), (4700.00, 10.00), 2.50
M 15.10000 12 (1700.00, 6000.00, 0.00), (1700.00, 10.00), 2.50
M 15.10000 13 (4700.00, 6000.00, 0.00), (4700.00, 10.00), 2.50
M 15.10000 12 (1700.00, 6000.00, 0.00), (1700.00, 10.00), 2.50
M 15.10000 13 (4700.00, 6000.00, 0.00), (4700.00, 10.00), 2.50
M 15.10000 12 (1700.00, 6000.00, 0.00), (1700.00, 10.00), 2.50
M 15.10000 13 (4700.00, 6000.00, 0.00), (4700.00, 10.00), 2.50
M 15.10000 12 (1700.00, 6000.00, 0.00), (1700.00, 10.00), 2.50
M 15.10000 13 (4700.00, 6000.00, 0.00), (4700.00, 10.00), 2.50
M 15.10000 12 (1700.00, 6000.00, 0.00), (1700.00, 10.00), 2.50
M 15.10000 13 (4700.00, 6000.00, 0.00), (4700.00, 10.00), 2.50
s 119.000025000 _0_ MAC  --- 12 vectorbasedforward 309 [0 0 ffff0008 0] [energy 199818.980800 ei 20.339 es 0.000 et 148.320 er 12.360] ------- [60:309 12:0 0 0] 
M 15.10000 12 (1700.00, 6000.00, 0.00), (1700.00, 10.00), 2.50
M 15.10000 13 (4700.00, 6000.00, 0.00), (4700.00, 10.00), 2.50
M 15.10000 12 (1700.00, 6000.00, 0.00), (1700.00, 10.00), 2.50
M 15.10000 13 (4700.00, 6000.00, 0.00), (4700.00, 10.00), 2.50
M 15.10000 12 (1700.00, 6000.00, 0.00), (1700.00, 10.00), 2.50
M 15.10000 13 (4700.00, 6000.00, 0.00), (4700.00, 10.00), 2.50
r 122.151230408 _12_ MAC  --- 12 vectorbasedforward 300 [0 0 ffff0008 0] [energy 199963.704154 ei 21.464 es 0.000 et 0.000 er 14.832] ------- [60:300 12:0 0 0] 
r 122.805358333 _1_ MAC  --- 12 vectorbasedforward 300 [0 0 ffff0008 0] [energy 199957.640528 ei 20.111 es 0.000 et 0.000 er 22.248] ------- [60:300 12:0 0 0] 
r 122.805358333 _3_ MAC  --- 12 vectorbasedforward 300 [0 0 ffff0008 0] [energy 199740.598928 ei 19.617 es 0.000 et 222.480 er 17.304] ------- [60:300 12:0 0 0] 
s 122.805358333 _3_ MAC  --- 13 vectorbasedforward 309 [0 3000000 ffff0008 0] [energy 199740.598928 ei 19.617 es 0.000 et 222.480 er 17.304] ------- [60:309 13:0 0 0] 
M 15.10000 12 (1700.00, 6000.00, 0.00), (1700.00, 10.00), 2.50
M 15.10000 13 (4700.00, 6000.00, 0.00), (4700.00, 10.00), 2.50
r 123.357643083 _4_ MAC  --- 12 vectorbasedforward 300 [0 0 ffff0008 0] [energy 199810.198871 ei 19.233 es 0.000 et 148.320 er 22.248] ------- [60:300 12:0 0 0] 
M 15.10000 12 (1700.00, 6000.00, 0.00), (1700.00, 10.00), 2.50
M 15.10000 13 (4700.00, 6000.00, 0.00), (4700.00, 10.00), 2.50
M 15.10000 12 (1700.00, 6000.00, 0.00), (1700.00, 10.00), 2.50
M 15.10000 13 (4700.00, 6000.00, 0.00), (4700.00, 10.00), 2.50
M 15.10000 12 (1700.00, 6000.00, 0.00), (1700.00, 10.00), 2.50
M 15.10000 13 (4700.00, 6000.00, 0.00), (4700.00, 10.00), 2.50
r 126.271558399 _12_ MAC  --- 13 vectorbasedforward 300 [0 3000000 ffff0008 0] [energy 199960.902488 ei 21.794 es 0.000 et 0.000 er 17.304] ------- [60:300 13:0 0 0] 
r 126.510957581 _13_ MAC  --- 13 vectorbasedforward 300 [0 3000000 ffff0008 0] [energy 199956.899408 ei 20.853 es 0.000 et 0.000 er 22.248] ------- [60:300 13:0 0 0] 
r 126.610691667 _0_ MAC  --- 13 vectorbasedforward 300 [0 3000000 ffff0008 0] [energy 199741.815462 ei 20.873 es 0.000 et 222.480 er 14.832] ------- [60:300 13:0 0 0] 
r 126.610691667 _4_ MAC  --- 13 vectorbasedforward 300 [0 3000000 ffff0008 0] [energy 199807.570662 ei 19.389 es 0.000 et 148.320 er 24.720] ------- [60:300 13:0 0 0] 
r 126.610691667 _6_ MAC  --- 13 vectorbasedforward 300 [0 3000000 ffff0008 0] [energy 199810.656993 ei 20.161 es 0.000 et 148.320 er 20.862] ------- [60:300 13:0 0 0] 
M 15.10000 12 (1700.00, 6000.00, 0.00), (1700.00, 10.00), 2.50
M 15.10000 13 (4700.00, 6000.00, 0.00), (4700.00, 10.00), 2.50
r 127.162976416 _1_ MAC  --- 13 vectorbasedforward 300 [0 3000000 ffff0008 0] [energy 199954.791405 ei 20.489 es 0.000 et 0.000 er 24.720] ------- [60:300 13:0 0 0] 
r 127.162976416 _7_ MAC  --- 13 vectorbasedforward 300 [0 3000000 ffff0008 0] [energy 199955.689847 ei 20.713 es 0.000 et 0.000 er 23.597] ------- [60:300 13:0 0 0] 
M 15.10000 12 (1700.00, 6000.00, 0.00), (1700.00, 10.00), 2.50
M 15.10000 13 (4700.00, 6000.00, 0.00), (4700.00, 10.00), 2.50
M 15.10000 12 (1700.00, 6000.00, 0.00), (1700.00, 10.00), 2.50
M 15.10000 13 (4700.00, 6000.00, 0.00), (4700.00, 10.00), 2.50
s 129.000025000 _6_ MAC  --- 14 vectorbasedforward 309 [0 6000000 ffff0008 0] [energy 199810.179131 ei 20.639 es 0.000 et 148.320 er 20.862] ------- [60:309 14:0 0 0] 
M 15.10000 12 (1700.00, 6000.00, 0.00), (1700.00, 10.00), 2.50
M 15.10000 13 (4700.00, 6000.00, 0.00), (4700.00, 10.00), 2.50
M 15.10000 12 (1700.00, 6000.00, 0.00), (1700.00, 10.00), 2.50
M 15.10000 13 (4700.00, 6000.00, 0.00), (4700.00, 10.00), 2.50
r 131.989103319 _13_ MAC  --- 14 vectorbasedforward 300 [0 6000000 ffff0008 0] [energy 199953.826179 ei 21.454 es 0.000 et 0.000 er 24.720] ------- [60:300 14:0 0 0] 
M 15.10000 12 (1700.00, 6000.00, 0.00), (1700.00, 10.00), 2.50
M 15.10000 13 (4700.00, 6000.00, 0.00), (4700.00, 10.00), 2.50