n -t * -s 0  -x 1000 -y 5000 -Z 0 -z 1000  -v circle -c green
n -t * -s 1  -x 1000 -y 3000 -Z 0 -z 1000  -v circle -c green
n -t * -s 2  -x 1000 -y 1000 -Z 0 -z 1000  -v circle -c green
n -t * -s 3  -x 3000 -y 5000 -Z 0 -z 1000  -v circle -c green
n -t * -s 4  -x 3000 -y 3000 -Z 0 -z 1000  -v circle -c green
n -t * -s 5  -x 3000 -y 1000 -Z 0 -z 1000  -v circle -c green
n -t * -s 6  -x 5000 -y 5000 -Z 0 -z 1000  -v circle -c green
n -t * -s 7  -x 5000 -y 3000 -Z 0 -z 1000  -v circle -c green
n -t * -s 8  -x 5000 -y 1000 -Z 0 -z 1000  -v circle -c green
n -t * -s 9  -x 7000 -y 5000 -Z 0 -z 1000  -v circle -c green
n -t * -s 10  -x 7000 -y 3000 -Z 0 -z 1000  -v circle -c green
n -t * -s 11  -x 7000 -y 1000 -Z 0 -z 1000  -v circle -c green
n -t * -s 12  -x 1700 -y 6000 -Z 0 -z 1000  -v circle -c green
n -t * -s 13  -x 4700 -y 6000 -Z 0 -z 1000  -v circle -c green
V -t * -v 1.0a5 -a 0
W -t * -x 10000 -y 6000
A -t * -n 1 -p 0 -o 0xffffffff -c 31 -a 1
A -t * -h 1 -m 2147483647 -s 0
n -t 15.100000 -s 12 -x 1700.000000 -y 6000.000000 -U 0.000000 -V -2.500000 -T 2396.000000
n -t 15.100000 -s 13 -x 4700.000000 -y 6000.000000 -U 0.000000 -V -2.500000 -T 2396.000000
+ -t 25.000025000 -s 3 -d -1 -p vectorbasedforward -e 309 -c 2 -a 0 -i 1 -k MAC 
- -t 25.000025000 -s 3 -d -1 -p vectorbasedforward -e 309 -c 2 -a 0 -i 1 -k MAC
n -t 25.000025000 -s 3 -S COLOR -c red -o yellow
h -t 25.000025000 -s 3 -d -1 -p vectorbasedforward -e 309 -c 2 -a 0 -i 1 -k MAC -R 3000.000000
v -t 25.000025000 -e sim_annotation 25.000025000 1 node 3 sendout packet (vectorbasedforward) 1
n -t 28.555458317 -s 12 -S COLOR -c red -o yellow
r -t 28.555458317 -s 12 -d -1 -p vectorbasedforward -e 300 -c 2 -a 0 -i 1 -k MAC -R 3000.000000
v -t 28.555458317 -e sim_annotation 28.555458317 2 node 12 receive packet(vectorbasedforward) 1
n -t 28.778608746 -s 13 -S COLOR -c red -o yellow
r -t 28.778608746 -s 13 -d -1 -p vectorbasedforward -e 300 -c 2 -a 0 -i 1 -k MAC -R 3000.000000
v -t 28.778608746 -e sim_annotation 28.778608746 3 node 13 receive packet(vectorbasedforward) 1
n -t 28.805358333 -s 0 -S COLOR -c red -o yellow
r -t 28.805358333 -s 0 -d -1 -p vectorbasedforward -e 300 -c 2 -a 0 -i 1 -k MAC -R 3000.000000
v -t 28.805358333 -e sim_annotation 28.805358333 4 node 0 receive packet(vectorbasedforward) 1
n -t 28.805358333 -s 4 -S COLOR -c red -o yellow
r -t 28.805358333 -s 4 -d -1 -p vectorbasedforward -e 300 -c 2 -a 0 -i 1 -k MAC -R 3000.000000
v -t 28.805358333 -e sim_annotation 28.805358333 5 node 4 receive packet(vectorbasedforward) 1
n -t 28.805358333 -s 6 -S COLOR -c red -o yellow
r -t 28.805358333 -s 6 -d -1 -p vectorbasedforward -e 300 -c 2 -a 0 -i 1 -k MAC -R 3000.000000
v -t 28.805358333 -e sim_annotation 28.805358333 6 node 6 receive packet(vectorbasedforward) 1
n -t 29.357643083 -s 1 -S COLOR -c red -o yellow
r -t 29.357643083 -s 1 -d -1 -p vectorbasedforward -e 300 -c 2 -a 0 -i 1 -k MAC -R 3000.000000
v -t 29.357643083 -e sim_annotation 29.357643083 7 node 1 receive packet(vectorbasedforward) 1
n -t 29.357643083 -s 7 -S COLOR -c red -o yellow
r -t 29.357643083 -s 7 -d -1 -p vectorbasedforward -e 300 -c 2 -a 0 -i 1 -k MAC -R 3000.000000
v -t 29.357643083 -e sim_annotation 29.357643083 8 node 7 receive packet(vectorbasedforward) 1
+ -t 33.537264539 -s 6 -d -1 -p vectorbasedforward -e 309 -c 2 -a 0 -i 2 -k MAC 
- -t 33.537264539 -s 6 -d -1 -p vectorbasedforward -e 309 -c 2 -a 0 -i 2 -k MAC
n -t 33.537264539 -s 6 -S COLOR -c red -o yellow
h -t 33.537264539 -s 6 -d -1 -p vectorbasedforward -e 309 -c 2 -a 0 -i 2 -k MAC -R 3000.000000
v -t 33.537264539 -e sim_annotation 33.537264539 9 node 6 sendout packet (vectorbasedforward) 2
r -t 36.675910624 -s 13 -d -1 -p vectorbasedforward -e 300 -c 2 -a 0 -i 2 -k MAC -R 3000.000000
v -t 36.675910624 -e sim_annotation 36.675910624 10 node 13 receive packet(vectorbasedforward) 2
n -t 37.342597872 -s 3 -S COLOR -c red -o yellow
r -t 37.342597872 -s 3 -d -1 -p vectorbasedforward -e 300 -c 2 -a 0 -i 2 -k MAC -R 3000.000000
v -t 37.342597872 -e sim_annotation 37.342597872 11 node 3 receive packet(vectorbasedforward) 2
r -t 37.342597872 -s 7 -d -1 -p vectorbasedforward -e 300 -c 2 -a 0 -i 2 -k MAC -R 3000.000000
v -t 37.342597872 -e sim_annotation 37.342597872 12 node 7 receive packet(vectorbasedforward) 2
n -t 37.342597872 -s 9 -S COLOR -c red -o yellow
r -t 37.342597872 -s 9 -d -1 -p vectorbasedforward -e 300 -c 2 -a 0 -i 2 -k MAC -R 3000.000000
v -t 37.342597872 -e sim_annotation 37.342597872 13 node 9 receive packet(vectorbasedforward) 2
r -t 37.894882622 -s 4 -d -1 -p vectorbasedforward -e 300 -c 2 -a 0 -i 2 -k MAC -R 3000.000000
v -t 37.894882622 -e sim_annotation 37.894882622 14 node 4 receive packet(vectorbasedforward) 2
n -t 37.894882622 -s 10 -S COLOR -c red -o yellow
r -t 37.894882622 -s 10 -d -1 -p vectorbasedforward -e 300 -c 2 -a 0 -i 2 -k MAC -R 3000.000000
v -t 37.894882622 -e sim_annotation 37.894882622 15 node 10 receive packet(vectorbasedforward) 2
+ -t 38.569356320 -s 4 -d -1 -p vectorbasedforward -e 309 -c 2 -a 0 -i 2 -k MAC 
- -t 38.569356320 -s 4 -d -1 -p vectorbasedforward -e 309 -c 2 -a 0 -i 2 -k MAC
n -t 38.569356320 -s 4 -S COLOR -c red -o yellow
h -t 38.569356320 -s 4 -d -1 -p vectorbasedforward -e 309 -c 2 -a 0 -i 2 -k MAC -R 3000.000000
v -t 38.569356320 -e sim_annotation 38.569356320 16 node 4 sendout packet (vectorbasedforward) 2
+ -t 39.000025000 -s 9 -d -1 -p vectorbasedforward -e 309 -c 2 -a 0 -i 3 -k MAC 
- -t 39.000025000 -s 9 -d -1 -p vectorbasedforward -e 309 -c 2 -a 0 -i 3 -k MAC
n -t 39.000025000 -s 9 -S COLOR -c red -o yellow
h -t 39.000025000 -s 9 -d -1 -p vectorbasedforward -e 309 -c 2 -a 0 -i 3 -k MAC -R 3000.000000
v -t 39.000025000 -e sim_annotation 39.000025000 17 node 9 sendout packet (vectorbasedforward) 3
r -t 42.374689654 -s 3 -d -1 -p vectorbasedforward -e 300 -c 2 -a 0 -i 2 -k MAC -R 3000.000000
v -t 42.374689654 -e sim_annotation 42.374689654 18 node 3 receive packet(vectorbasedforward) 2
r -t 42.374689654 -s 1 -d -1 -p vectorbasedforward -e 300 -c 2 -a 0 -i 2 -k MAC -R 3000.000000
v -t 42.374689654 -e sim_annotation 42.374689654 19 node 1 receive packet(vectorbasedforward) 2
n -t 42.374689654 -s 5 -S COLOR -c red -o yellow
r -t 42.374689654 -s 5 -d -1 -p vectorbasedforward -e 300 -c 2 -a 0 -i 2 -k MAC -R 3000.000000
v -t 42.374689654 -e sim_annotation 42.374689654 20 node 5 receive packet(vectorbasedforward) 2
r -t 42.805358333 -s 10 -d -1 -p vectorbasedforward -e 300 -c 2 -a 0 -i 3 -k MAC -R 3000.000000
v -t 42.805358333 -e sim_annotation 42.805358333 21 node 10 receive packet(vectorbasedforward) 3
n -t 42.926974404 -s 2 -S COLOR -c red -o yellow
r -t 42.926974404 -s 2 -d -1 -p vectorbasedforward -e 300 -c 2 -a 0 -i 2 -k MAC -R 3000.000000
v -t 42.926974404 -e sim_annotation 42.926974404 22 node 2 receive packet(vectorbasedforward) 2
r -t 42.926974404 -s 0 -d -1 -p vectorbasedforward -e 300 -c 2 -a 0 -i 2 -k MAC -R 3000.000000
v -t 42.926974404 -e sim_annotation 42.926974404 23 node 0 receive packet(vectorbasedforward) 2
n -t 42.926974404 -s 8 -S COLOR -c red -o yellow
r -t 42.926974404 -s 8 -d -1 -p vectorbasedforward -e 300 -c 2 -a 0 -i 2 -k MAC -R 3000.000000
v -t 42.926974404 -e sim_annotation 42.926974404 24 node 8 receive packet(vectorbasedforward) 2
r -t 43.128536722 -s 13 -d -1 -p vectorbasedforward -e 300 -c 2 -a 0 -i 3 -k MAC -R 3000.000000
v -t 43.128536722 -e sim_annotation 43.128536722 25 node 13 receive packet(vectorbasedforward) 3
+ -t 50.250025000 -s 0 -d -1 -p vectorbasedforward -e 309 -c 2 -a 0 -i 4 -k MAC 
- -t 50.250025000 -s 0 -d -1 -p vectorbasedforward -e 309 -c 2 -a 0 -i 4 -k MAC
n -t 50.250025000 -s 0 -S COLOR -c red -o yellow
h -t 50.250025000 -s 0 -d -1 -p vectorbasedforward -e 309 -c 2 -a 0 -i 4 -k MAC -R 3000.000000
v -t 50.250025000 -e sim_annotation 50.250025000 26 node 0 sendout packet (vectorbasedforward) 4
r -t 53.488538579 -s 12 -d -1 -p vectorbasedforward -e 300 -c 2 -a 0 -i 4 -k MAC -R 3000.000000
v -t 53.488538579 -e sim_annotation 53.488538579 27 node 12 receive packet(vectorbasedforward) 4
r -t 54.055358333 -s 1 -d -1 -p vectorbasedforward -e 300 -c 2 -a 0 -i 4 -k MAC -R 3000.000000
v -t 54.055358333 -e sim_annotation 54.055358333 28 node 1 receive packet(vectorbasedforward) 4
r -t 54.055358333 -s 3 -d -1 -p vectorbasedforward -e 300 -c 2 -a 0 -i 4 -k MAC -R 3000.000000
v -t 54.055358333 -e sim_annotation 54.055358333 29 node 3 receive packet(vectorbasedforward) 4
r -t 54.607643083 -s 4 -d -1 -p vectorbasedforward -e 300 -c 2 -a 0 -i 4 -k MAC -R 3000.000000
v -t 54.607643083 -e sim_annotation 54.607643083 30 node 4 receive packet(vectorbasedforward) 4
+ -t 56.777505801 -s 3 -d -1 -p vectorbasedforward -e 309 -c 2 -a 0 -i 5 -k MAC 
- -t 56.777505801 -s 3 -d -1 -p vectorbasedforward -e 309 -c 2 -a 0 -i 5 -k MAC
h -t 56.777505801 -s 3 -d -1 -p vectorbasedforward -e 309 -c 2 -a 0 -i 5 -k MAC -R 3000.000000
v -t 56.777505801 -e sim_annotation 56.777505801 31 node 3 sendout packet (vectorbasedforward) 5
r -t 60.302009443 -s 12 -d -1 -p vectorbasedforward -e 300 -c 2 -a 0 -i 5 -k MAC -R 3000.000000
v -t 60.302009443 -e sim_annotation 60.302009443 32 node 12 receive packet(vectorbasedforward) 5
r -t 60.530558981 -s 13 -d -1 -p vectorbasedforward -e 300 -c 2 -a 0 -i 5 -k MAC -R 3000.000000
v -t 60.530558981 -e sim_annotation 60.530558981 33 node 13 receive packet(vectorbasedforward) 5
r -t 60.582839134 -s 0 -d -1 -p vectorbasedforward -e 300 -c 2 -a 0 -i 5 -k MAC -R 3000.000000
v -t 60.582839134 -e sim_annotation 60.582839134 34 node 0 receive packet(vectorbasedforward) 5
r -t 60.582839134 -s 4 -d -1 -p vectorbasedforward -e 300 -c 2 -a 0 -i 5 -k MAC -R 3000.000000
v -t 60.582839134 -e sim_annotation 60.582839134 35 node 4 receive packet(vectorbasedforward) 5
r -t 60.582839134 -s 6 -d -1 -p vectorbasedforward -e 300 -c 2 -a 0 -i 5 -k MAC -R 3000.000000
v -t 60.582839134 -e sim_annotation 60.582839134 36 node 6 receive packet(vectorbasedforward) 5
r -t 61.135123884 -s 1 -d -1 -p vectorbasedforward -e 300 -c 2 -a 0 -i 5 -k MAC -R 3000.000000
v -t 61.135123884 -e sim_annotation 61.135123884 37 node 1 receive packet(vectorbasedforward) 5
r -t 61.135123884 -s 7 -d -1 -p vectorbasedforward -e 300 -c 2 -a 0 -i 5 -k MAC -R 3000.000000
v -t 61.135123884 -e sim_annotation 61.135123884 38 node 7 receive packet(vectorbasedforward) 5
+ -t 70.250025000 -s 9 -d -1 -p vectorbasedforward -e 309 -c 2 -a 0 -i 7 -k MAC 
- -t 70.250025000 -s 9 -d -1 -p vectorbasedforward -e 309 -c 2 -a 0 -i 7 -k MAC
h -t 70.250025000 -s 9 -d -1 -p vectorbasedforward -e 309 -c 2 -a 0 -i 7 -k MAC -R 3000.000000
v -t 70.250025000 -e sim_annotation 70.250025000 39 node 9 sendout packet (vectorbasedforward) 7
r -t 74.055358333 -s 6 -d -1 -p vectorbasedforward -e 300 -c 2 -a 0 -i 7 -k MAC -R 3000.000000
v -t 74.055358333 -e sim_annotation 74.055358333 40 node 6 receive packet(vectorbasedforward) 7
r -t 74.055358333 -s 10 -d -1 -p vectorbasedforward -e 300 -c 2 -a 0 -i 7 -k MAC -R 3000.000000
v -t 74.055358333 -e sim_annotation 74.055358333 41 node 10 receive packet(vectorbasedforward) 7
r -t 74.359537939 -s 13 -d -1 -p vectorbasedforward -e 300 -c 2 -a 0 -i 7 -k MAC -R 3000.000000
v -t 74.359537939 -e sim_annotation 74.359537939 42 node 13 receive packet(vectorbasedforward) 7
r -t 74.607643083 -s 7 -d -1 -p vectorbasedforward -e 300 -c 2 -a 0 -i 7 -k MAC -R 3000.000000
v -t 74.607643083 -e sim_annotation 74.607643083 43 node 7 receive packet(vectorbasedforward) 7
+ -t 81.500025000 -s 0 -d -1 -p vectorbasedforward -e 309 -c 2 -a 0 -i 8 -k MAC 
- -t 81.500025000 -s 0 -d -1 -p vectorbasedforward -e 309 -c 2 -a 0 -i 8 -k MAC
h -t 81.500025000 -s 0 -d -1 -p vectorbasedforward -e 309 -c 2 -a 0 -i 8 -k MAC -R 3000.000000
v -t 81.500025000 -e sim_annotation 81.500025000 44 node 0 sendout packet (vectorbasedforward) 8
r -t 84.697913236 -s 12 -d -1 -p vectorbasedforward -e 300 -c 2 -a 0 -i 8 -k MAC -R 3000.000000
v -t 84.697913236 -e sim_annotation 84.697913236 45 node 12 receive packet(vectorbasedforward) 8
r -t 85.305358333 -s 1 -d -1 -p vectorbasedforward -e 300 -c 2 -a 0 -i 8 -k MAC -R 3000.000000
v -t 85.305358333 -e sim_annotation 85.305358333 46 node 1 receive packet(vectorbasedforward) 8
r -t 85.305358333 -s 3 -d -1 -p vectorbasedforward -e 300 -c 2 -a 0 -i 8 -k MAC -R 3000.000000
v -t 85.305358333 -e sim_annotation 85.305358333 47 node 3 receive packet(vectorbasedforward) 8
r -t 85.857643083 -s 4 -d -1 -p vectorbasedforward -e 300 -c 2 -a 0 -i 8 -k MAC -R 3000.000000
v -t 85.857643083 -e sim_annotation 85.857643083 48 node 4 receive packet(vectorbasedforward) 8
+ -t 87.835597485 -s 3 -d -1 -p vectorbasedforward -e 309 -c 2 -a 0 -i 9 -k MAC 
- -t 87.835597485 -s 3 -d -1 -p vectorbasedforward -e 309 -c 2 -a 0 -i 9 -k MAC
h -t 87.835597485 -s 3 -d -1 -p vectorbasedforward -e 309 -c 2 -a 0 -i 9 -k MAC -R 3000.000000
v -t 87.835597485 -e sim_annotation 87.835597485 49 node 3 sendout packet (vectorbasedforward) 9
r -t 91.331617326 -s 12 -d -1 -p vectorbasedforward -e 300 -c 2 -a 0 -i 9 -k MAC -R 3000.000000
v -t 91.331617326 -e sim_annotation 91.331617326 50 node 12 receive packet(vectorbasedforward) 9
r -t 91.565353411 -s 13 -d -1 -p vectorbasedforward -e 300 -c 2 -a 0 -i 9 -k MAC -R 3000.000000
v -t 91.565353411 -e sim_annotation 91.565353411 51 node 13 receive packet(vectorbasedforward) 9
r -t 91.640930818 -s 0 -d -1 -p vectorbasedforward -e 300 -c 2 -a 0 -i 9 -k MAC -R 3000.000000
v -t 91.640930818 -e sim_annotation 91.640930818 52 node 0 receive packet(vectorbasedforward) 9
r -t 91.640930818 -s 4 -d -1 -p vectorbasedforward -e 300 -c 2 -a 0 -i 9 -k MAC -R 3000.000000
v -t 91.640930818 -e sim_annotation 91.640930818 53 node 4 receive packet(vectorbasedforward) 9
r -t 91.640930818 -s 6 -d -1 -p vectorbasedforward -e 300 -c 2 -a 0 -i 9 -k MAC -R 3000.000000
v -t 91.640930818 -e sim_annotation 91.640930818 54 node 6 receive packet(vectorbasedforward) 9
r -t 92.193215568 -s 1 -d -1 -p vectorbasedforward -e 300 -c 2 -a 0 -i 9 -k MAC -R 3000.000000
v -t 92.193215568 -e sim_annotation 92.193215568 55 node 1 receive packet(vectorbasedforward) 9
r -t 92.193215568 -s 7 -d -1 -p vectorbasedforward -e 300 -c 2 -a 0 -i 9 -k MAC -R 3000.000000
v -t 92.193215568 -e sim_annotation 92.193215568 56 node 7 receive packet(vectorbasedforward) 9
+ -t 99.307649772 -s 6 -d -1 -p vectorbasedforward -e 309 -c 2 -a 0 -i 10 -k MAC 
- -t 99.307649772 -s 6 -d -1 -p vectorbasedforward -e 309 -c 2 -a 0 -i 10 -k MAC
h -t 99.307649772 -s 6 -d -1 -p vectorbasedforward -e 309 -c 2 -a 0 -i 10 -k MAC -R 3000.000000
v -t 99.307649772 -e sim_annotation 99.307649772 57 node 6 sendout packet (vectorbasedforward) 10
r -t 102.342689164 -s 13 -d -1 -p vectorbasedforward -e 300 -c 2 -a 0 -i 10 -k MAC -R 3000.000000
v -t 102.342689164 -e sim_annotation 102.342689164 58 node 13 receive packet(vectorbasedforward) 10
r -t 103.112983105 -s 3 -d -1 -p vectorbasedforward -e 300 -c 2 -a 0 -i 10 -k MAC -R 3000.000000
v -t 103.112983105 -e sim_annotation 103.112983105 59 node 3 receive packet(vectorbasedforward) 10
r -t 103.112983105 -s 7 -d -1 -p vectorbasedforward -e 300 -c 2 -a 0 -i 10 -k MAC -R 3000.000000
v -t 103.112983105 -e sim_annotation 103.112983105 60 node 7 receive packet(vectorbasedforward) 10
r -t 103.112983105 -s 9 -d -1 -p vectorbasedforward -e 300 -c 2 -a 0 -i 10 -k MAC -R 3000.000000
v -t 103.112983105 -e sim_annotation 103.112983105 61 node 9 receive packet(vectorbasedforward) 10
r -t 103.665267855 -s 4 -d -1 -p vectorbasedforward -e 300 -c 2 -a 0 -i 10 -k MAC -R 3000.000000
v -t 103.665267855 -e sim_annotation 103.665267855 62 node 4 receive packet(vectorbasedforward) 10
r -t 103.665267855 -s 10 -d -1 -p vectorbasedforward -e 300 -c 2 -a 0 -i 10 -k MAC -R 3000.000000
v -t 103.665267855 -e sim_annotation 103.665267855 63 node 10 receive packet(vectorbasedforward) 10
+ -t 105.732962756 -s 9 -d -1 -p vectorbasedforward -e 309 -c 2 -a 0 -i 11 -k MAC 
- -t 105.732962756 -s 9 -d -1 -p vectorbasedforward -e 309 -c 2 -a 0 -i 11 -k MAC
h -t 105.732962756 -s 9 -d -1 -p vectorbasedforward -e 309 -c 2 -a 0 -i 11 -k MAC -R 3000.000000
v -t 105.732962756 -e sim_annotation 105.732962756 64 node 9 sendout packet (vectorbasedforward) 11
+ -t 107.692028134 -s 4 -d -1 -p vectorbasedforward -e 309 -c 2 -a 0 -i 10 -k MAC 
- -t 107.692028134 -s 4 -d -1 -p vectorbasedforward -e 309 -c 2 -a 0 -i 10 -k MAC
h -t 107.692028134 -s 4 -d -1 -p vectorbasedforward -e 309 -c 2 -a 0 -i 10 -k MAC -R 3000.000000
v -t 107.692028134 -e sim_annotation 107.692028134 65 node 4 sendout packet (vectorbasedforward) 10
r -t 109.538296090 -s 6 -d -1 -p vectorbasedforward -e 300 -c 2 -a 0 -i 11 -k MAC -R 3000.000000
v -t 109.538296090 -e sim_annotation 109.538296090 66 node 6 receive packet(vectorbasedforward) 11
r -t 109.538296090 -s 10 -d -1 -p vectorbasedforward -e 300 -c 2 -a 0 -i 11 -k MAC -R 3000.000000
v -t 109.538296090 -e sim_annotation 109.538296090 67 node 10 receive packet(vectorbasedforward) 11
r -t 109.822666860 -s 13 -d -1 -p vectorbasedforward -e 300 -c 2 -a 0 -i 11 -k MAC -R 3000.000000
v -t 109.822666860 -e sim_annotation 109.822666860 68 node 13 receive packet(vectorbasedforward) 11
r -t 111.497361467 -s 3 -d -1 -p vectorbasedforward -e 300 -c 2 -a 0 -i 10 -k MAC -R 3000.000000
v -t 111.497361467 -e sim_annotation 111.497361467 69 node 3 receive packet(vectorbasedforward) 10
r -t 111.497361467 -s 1 -d -1 -p vectorbasedforward -e 300 -c 2 -a 0 -i 10 -k MAC -R 3000.000000
v -t 111.497361467 -e sim_annotation 111.497361467 70 node 1 receive packet(vectorbasedforward) 10
r -t 111.497361467 -s 5 -d -1 -p vectorbasedforward -e 300 -c 2 -a 0 -i 10 -k MAC -R 3000.000000
v -t 111.497361467 -e sim_annotation 111.497361467 71 node 5 receive packet(vectorbasedforward) 10
r -t 112.049646217 -s 2 -d -1 -p vectorbasedforward -e 300 -c 2 -a 0 -i 10 -k MAC -R 3000.000000
v -t 112.049646217 -e sim_annotation 112.049646217 72 node 2 receive packet(vectorbasedforward) 10
r -t 112.049646217 -s 0 -d -1 -p vectorbasedforward -e 300 -c 2 -a 0 -i 10 -k MAC -R 3000.000000
v -t 112.049646217 -e sim_annotation 112.049646217 73 node 0 receive packet(vectorbasedforward) 10
r -t 112.049646217 -s 6 -d -1 -p vectorbasedforward -e 300 -c 2 -a 0 -i 10 -k MAC -R 3000.000000
v -t 112.049646217 -e sim_annotation 112.049646217 74 node 6 receive packet(vectorbasedforward) 10
r -t 112.049646217 -s 8 -d -1 -p vectorbasedforward -e 300 -c 2 -a 0 -i 10 -k MAC -R 3000.000000
v -t 112.049646217 -e sim_annotation 112.049646217 75 node 8 receive packet(vectorbasedforward) 10
+ -t 112.861585113 -s 2 -d -1 -p vectorbasedforward -e 309 -c 2 -a 0 -i 10 -k MAC 
- -t 112.861585113 -s 2 -d -1 -p vectorbasedforward -e 309 -c 2 -a 0 -i 10 -k MAC
n -t 112.861585113 -s 2 -S COLOR -c red -o yellow
h -t 112.861585113 -s 2 -d -1 -p vectorbasedforward -e 309 -c 2 -a 0 -i 10 -k MAC -R 3000.000000
v -t 112.861585113 -e sim_annotation 112.861585113 76 node 2 sendout packet (vectorbasedforward) 10
+ -t 115.036515776 -s 0 -d -1 -p vectorbasedforward -e 309 -c 2 -a 0 -i 12 -k MAC 
- -t 115.036515776 -s 0 -d -1 -p vectorbasedforward -e 309 -c 2 -a 0 -i 12 -k MAC
h -t 115.036515776 -s 0 -d -1 -p vectorbasedforward -e 309 -c 2 -a 0 -i 12 -k MAC -R 3000.000000
v -t 115.036515776 -e sim_annotation 115.036515776 77 node 0 sendout packet (vectorbasedforward) 12
r -t 116.666918447 -s 5 -d -1 -p vectorbasedforward -e 300 -c 2 -a 0 -i 10 -k MAC -R 3000.000000
v -t 116.666918447 -e sim_annotation 116.666918447 78 node 5 receive packet(vectorbasedforward) 10
r -t 118.192535948 -s 12 -d -1 -p vectorbasedforward -e 300 -c 2 -a 0 -i 12 -k MAC -R 3000.000000
v -t 118.192535948 -e sim_annotation 118.192535948 79 node 12 receive packet(vectorbasedforward) 12
r -t 118.841849109 -s 3 -d -1 -p vectorbasedforward -e 300 -c 2 -a 0 -i 12 -k MAC -R 3000.000000
v -t 118.841849109 -e sim_annotation 118.841849109 80 node 3 receive packet(vectorbasedforward) 12
+ -t 120.950602061 -s 3 -d -1 -p vectorbasedforward -e 309 -c 2 -a 0 -i 13 -k MAC 
- -t 120.950602061 -s 3 -d -1 -p vectorbasedforward -e 309 -c 2 -a 0 -i 13 -k MAC
h -t 120.950602061 -s 3 -d -1 -p vectorbasedforward -e 309 -c 2 -a 0 -i 13 -k MAC -R 3000.000000
v -t 120.950602061 -e sim_annotation 120.950602061 81 node 3 sendout packet (vectorbasedforward) 13
r -t 124.418320490 -s 12 -d -1 -p vectorbasedforward -e 300 -c 2 -a 0 -i 13 -k MAC -R 3000.000000
v -t 124.418320490 -e sim_annotation 124.418320490 82 node 12 receive packet(vectorbasedforward) 13
r -t 124.657425337 -s 13 -d -1 -p vectorbasedforward -e 300 -c 2 -a 0 -i 13 -k MAC -R 3000.000000
v -t 124.657425337 -e sim_annotation 124.657425337 83 node 13 receive packet(vectorbasedforward) 13
r -t 124.755935395 -s 0 -d -1 -p vectorbasedforward -e 300 -c 2 -a 0 -i 13 -k MAC -R 3000.000000
v -t 124.755935395 -e sim_annotation 124.755935395 84 node 0 receive packet(vectorbasedforward) 13
r -t 124.755935395 -s 4 -d -1 -p vectorbasedforward -e 300 -c 2 -a 0 -i 13 -k MAC -R 3000.000000
v -t 124.755935395 -e sim_annotation 124.755935395 85 node 4 receive packet(vectorbasedforward) 13
r -t 124.755935395 -s 6 -d -1 -p vectorbasedforward -e 300 -c 2 -a 0 -i 13 -k MAC -R 3000.000000
v -t 124.755935395 -e sim_annotation 124.755935395 86 node 6 receive packet(vectorbasedforward) 13
r -t 125.308220144 -s 1 -d -1 -p vectorbasedforward -e 300 -c 2 -a 0 -i 13 -k MAC -R 3000.000000
v -t 125.308220144 -e sim_annotation 125.308220144 87 node 1 receive packet(vectorbasedforward) 13
r -t 125.308220144 -s 7 -d -1 -p vectorbasedforward -e 300 -c 2 -a 0 -i 13 -k MAC -R 3000.000000
v -t 125.308220144 -e sim_annotation 125.308220144 88 node 7 receive packet(vectorbasedforward) 13
+ -t 127.179833988 -s 6 -d -1 -p vectorbasedforward -e 309 -c 2 -a 0 -i 14 -k MAC 
- -t 127.179833988 -s 6 -d -1 -p vectorbasedforward -e 309 -c 2 -a 0 -i 14 -k MAC
h -t 127.179833988 -s 6 -d -1 -p vectorbasedforward -e 309 -c 2 -a 0 -i 14 -k MAC -R 3000.000000
v -t 127.179833988 -e sim_annotation 127.179833988 89 node 6 sendout packet (vectorbasedforward) 14
r -t 130.171711169 -s 13 -d -1 -p vectorbasedforward -e 300 -c 2 -a 0 -i 14 -k MAC -R 3000.000000
v -t 130.171711169 -e sim_annotation 130.171711169 90 node 13 receive packet(vectorbasedforward) 14
r -t 130.985167322 -s 3 -d -1 -p vectorbasedforward -e 300 -c 2 -a 0 -i 14 -k MAC -R 3000.000000
v -t 130.985167322 -e sim_annotation 130.985167322 91 node 3 receive packet(vectorbasedforward) 14
r -t 130.985167322 -s 7 -d -1 -p vectorbasedforward -e 300 -c 2 -a 0 -i 14 -k MAC -R 3000.000000
v -t 130.985167322 -e sim_annotation 130.985167322 92 node 7 receive packet(vectorbasedforward) 14
r -t 130.985167322 -s 9 -d -1 -p vectorbasedforward -e 300 -c 2 -a 0 -i 14 -k MAC -R 3000.000000
v -t 130.985167322 -e sim_annotation 130.985167322 93 node 9 receive packet(vectorbasedforward) 14
r -t 131.537452072 -s 4 -d -1 -p vectorbasedforward -e 300 -c 2 -a 0 -i 14 -k MAC -R 3000.000000
v -t 131.537452072 -e sim_annotation 131.537452072 94 node 4 receive packet(vectorbasedforward) 14
r -t 131.537452072 -s 10 -d -1 -p vectorbasedforward -e 300 -c 2 -a 0 -i 14 -k MAC -R 3000.000000
v -t 131.537452072 -e sim_annotation 131.537452072 95 node 10 receive packet(vectorbasedforward) 14
+ -t 132.211925770 -s 4 -d -1 -p vectorbasedforward -e 309 -c 2 -a 0 -i 14 -k MAC 
- -t 132.211925770 -s 4 -d -1 -p vectorbasedforward -e 309 -c 2 -a 0 -i 14 -k MAC
h -t 132.211925770 -s 4 -d -1 -p vectorbasedforward -e 309 -c 2 -a 0 -i 14 -k MAC -R 3000.000000
v -t 132.211925770 -e sim_annotation 132.211925770 96 node 4 sendout packet (vectorbasedforward) 14
+ -t 132.750025000 -s 9 -d -1 -p vectorbasedforward -e 309 -c 2 -a 0 -i 15 -k MAC 
- -t 132.750025000 -s 9 -d -1 -p vectorbasedforward -e 309 -c 2 -a 0 -i 15 -k MAC
h -t 132.750025000 -s 9 -d -1 -p vectorbasedforward -e 309 -c 2 -a 0 -i 15 -k MAC -R 3000.000000
v -t 132.750025000 -e sim_annotation 132.750025000 97 node 9 sendout packet (vectorbasedforward) 15
r -t 136.017259104 -s 3 -d -1 -p vectorbasedforward -e 300 -c 2 -a 0 -i 14 -k MAC -R 3000.000000
v -t 136.017259104 -e sim_annotation 136.017259104 98 node 3 receive packet(vectorbasedforward) 14
r -t 136.017259104 -s 1 -d -1 -p vectorbasedforward -e 300 -c 2 -a 0 -i 14 -k MAC -R 3000.000000
v -t 136.017259104 -e sim_annotation 136.017259104 99 node 1 receive packet(vectorbasedforward) 14
r -t 136.017259104 -s 5 -d -1 -p vectorbasedforward -e 300 -c 2 -a 0 -i 14 -k MAC -R 3000.000000
v -t 136.017259104 -e sim_annotation 136.017259104 100 node 5 receive packet(vectorbasedforward) 14
r -t 136.555358333 -s 10 -d -1 -p vectorbasedforward -e 300 -c 2 -a 0 -i 15 -k MAC -R 3000.000000
v -t 136.555358333 -e sim_annotation 136.555358333 101 node 10 receive packet(vectorbasedforward) 15
r -t 136.569543854 -s 2 -d -1 -p vectorbasedforward -e 300 -c 2 -a 0 -i 14 -k MAC -R 3000.000000
v -t 136.569543854 -e sim_annotation 136.569543854 102 node 2 receive packet(vectorbasedforward) 14
r -t 136.569543854 -s 0 -d -1 -p vectorbasedforward -e 300 -c 2 -a 0 -i 14 -k MAC -R 3000.000000
v -t 136.569543854 -e sim_annotation 136.569543854 103 node 0 receive packet(vectorbasedforward) 14
r -t 136.569543854 -s 8 -d -1 -p vectorbasedforward -e 300 -c 2 -a 0 -i 14 -k MAC -R 3000.000000
v -t 136.569543854 -e sim_annotation 136.569543854 104 node 8 receive packet(vectorbasedforward) 14
r -t 136.825945118 -s 13 -d -1 -p vectorbasedforward -e 300 -c 2 -a 0 -i 15 -k MAC -R 3000.000000
v -t 136.825945118 -e sim_annotation 136.825945118 105 node 13 receive packet(vectorbasedforward) 15
+ -t 137.381482750 -s 2 -d -1 -p vectorbasedforward -e 309 -c 2 -a 0 -i 14 -k MAC 
- -t 137.381482750 -s 2 -d -1 -p vectorbasedforward -e 309 -c 2 -a 0 -i 14 -k MAC
h -t 137.381482750 -s 2 -d -1 -p vectorbasedforward -e 309 -c 2 -a 0 -i 14 -k MAC -R 3000.000000
v -t 137.381482750 -e sim_annotation 137.381482750 106 node 2 sendout packet (vectorbasedforward) 14
r -t 141.186816083 -s 1 -d -1 -p vectorbasedforward -e 300 -c 2 -a 0 -i 14 -k MAC -R 3000.000000
v -t 141.186816083 -e sim_annotation 141.186816083 107 node 1 receive packet(vectorbasedforward) 14
r -t 141.186816083 -s 5 -d -1 -p vectorbasedforward -e 300 -c 2 -a 0 -i 14 -k MAC -R 3000.000000
v -t 141.186816083 -e sim_annotation 141.186816083 108 node 5 receive packet(vectorbasedforward) 14
r -t 141.739100833 -s 4 -d -1 -p vectorbasedforward -e 300 -c 2 -a 0 -i 14 -k MAC -R 3000.000000
v -t 141.739100833 -e sim_annotation 141.739100833 109 node 4 receive packet(vectorbasedforward) 14
+ -t 144.000025000 -s 0 -d -1 -p vectorbasedforward -e 309 -c 2 -a 0 -i 16 -k MAC 
- -t 144.000025000 -s 0 -d -1 -p vectorbasedforward -e 309 -c 2 -a 0 -i 16 -k MAC
h -t 144.000025000 -s 0 -d -1 -p vectorbasedforward -e 309 -c 2 -a 0 -i 16 -k MAC -R 3000.000000
v -t 144.000025000 -e sim_annotation 144.000025000 110 node 0 sendout packet (vectorbasedforward) 16
r -t 147.121587238 -s 12 -d -1 -p vectorbasedforward -e 300 -c 2 -a 0 -i 16 -k MAC -R 3000.000000
v -t 147.121587238 -e sim_annotation 147.121587238 111 node 12 receive packet(vectorbasedforward) 16
r -t 147.805358333 -s 1 -d -1 -p vectorbasedforward -e 300 -c 2 -a 0 -i 16 -k MAC -R 3000.000000
v -t 147.805358333 -e sim_annotation 147.805358333 112 node 1 receive packet(vectorbasedforward) 16
r -t 147.805358333 -s 3 -d -1 -p vectorbasedforward -e 300 -c 2 -a 0 -i 16 -k MAC -R 3000.000000
v -t 147.805358333 -e sim_annotation 147.805358333 113 node 3 receive packet(vectorbasedforward) 16
r -t 148.357643083 -s 4 -d -1 -p vectorbasedforward -e 300 -c 2 -a 0 -i 16 -k MAC -R 3000.000000
v -t 148.357643083 -e sim_annotation 148.357643083 114 node 4 receive packet(vectorbasedforward) 16
+ -t 150.859352250 -s 3 -d -1 -p vectorbasedforward -e 309 -c 2 -a 0 -i 17 -k MAC 
- -t 150.859352250 -s 3 -d -1 -p vectorbasedforward -e 309 -c 2 -a 0 -i 17 -k MAC
h -t 150.859352250 -s 3 -d -1 -p vectorbasedforward -e 309 -c 2 -a 0 -i 17 -k MAC -R 3000.000000
v -t 150.859352250 -e sim_annotation 150.859352250 115 node 3 sendout packet (vectorbasedforward) 17
r -t 154.303496386 -s 12 -d -1 -p vectorbasedforward -e 300 -c 2 -a 0 -i 17 -k MAC -R 3000.000000
v -t 154.303496386 -e sim_annotation 154.303496386 116 node 12 receive packet(vectorbasedforward) 17
r -t 154.547245977 -s 13 -d -1 -p vectorbasedforward -e 300 -c 2 -a 0 -i 17 -k MAC -R 3000.000000
v -t 154.547245977 -e sim_annotation 154.547245977 117 node 13 receive packet(vectorbasedforward) 17
r -t 154.664685583 -s 0 -d -1 -p vectorbasedforward -e 300 -c 2 -a 0 -i 17 -k MAC -R 3000.000000
v -t 154.664685583 -e sim_annotation 154.664685583 118 node 0 receive packet(vectorbasedforward) 17
r -t 154.664685583 -s 4 -d -1 -p vectorbasedforward -e 300 -c 2 -a 0 -i 17 -k MAC -R 3000.000000
v -t 154.664685583 -e sim_annotation 154.664685583 119 node 4 receive packet(vectorbasedforward) 17
r -t 154.664685583 -s 6 -d -1 -p vectorbasedforward -e 300 -c 2 -a 0 -i 17 -k MAC -R 3000.000000
v -t 154.664685583 -e sim_annotation 154.664685583 120 node 6 receive packet(vectorbasedforward) 17
r -t 155.216970333 -s 1 -d -1 -p vectorbasedforward -e 300 -c 2 -a 0 -i 17 -k MAC -R 3000.000000
v -t 155.216970333 -e sim_annotation 155.216970333 121 node 1 receive packet(vectorbasedforward) 17
r -t 155.216970333 -s 7 -d -1 -p vectorbasedforward -e 300 -c 2 -a 0 -i 17 -k MAC -R 3000.000000
v -t 155.216970333 -e sim_annotation 155.216970333 122 node 7 receive packet(vectorbasedforward) 17
+ -t 157.201917273 -s 6 -d -1 -p vectorbasedforward -e 309 -c 2 -a 0 -i 18 -k MAC 
- -t 157.201917273 -s 6 -d -1 -p vectorbasedforward -e 309 -c 2 -a 0 -i 18 -k MAC
h -t 157.201917273 -s 6 -d -1 -p vectorbasedforward -e 309 -c 2 -a 0 -i 18 -k MAC -R 3000.000000
v -t 157.201917273 -e sim_annotation 157.201917273 123 node 6 sendout packet (vectorbasedforward) 18
r -t 160.147999489 -s 13 -d -1 -p vectorbasedforward -e 300 -c 2 -a 0 -i 18 -k MAC -R 3000.000000
v -t 160.147999489 -e sim_annotation 160.147999489 124 node 13 receive packet(vectorbasedforward) 18
r -t 161.007250606 -s 3 -d -1 -p vectorbasedforward -e 300 -c 2 -a 0 -i 18 -k MAC -R 3000.000000