vectorbased
M 0.0 nn 14 x 10000 y 6000 z 0
M 0.0 prop Propagation/UnderwaterPropagation ant Antenna/OmniAntenna
M 15.10000 12 (1700.00, 6000.00, 0.00), (1700.00, 10.00), 2.50
M 15.10000 13 (4700.00, 6000.00, 0.00), (4700.00, 10.00), 2.50
M 15.10000 12 (1700.00, 6000.00, 0.00), (1700.00, 10.00), 2.50
M 15.10000 13 (4700.00, 6000.00, 0.00), (4700.00, 10.00), 2.50
M 15.10000 12 (1700.00, 6000.00, 0.00), (1700.00, 10.00), 2.50
M 15.10000 13 (4700.00, 6000.00, 0.00), (4700.00, 10.00), 2.50
M 15.10000 12 (1700.00, 6000.00, 0.00), (1700.00, 10.00), 2.50
M 15.10000 13 (4700.00, 6000.00, 0.00), (4700.00, 10.00), 2.50
M 15.10000 12 (1700.00, 6000.00, 0.00), (1700.00, 10.00), 2.50
M 15.10000 13 (4700.00, 6000.00, 0.00), (4700.00, 10.00), 2.50
M 15.10000 12 (1700.00, 6000.00, 0.00), (1700.00, 10.00), 2.50
M 15.10000 13 (4700.00, 6000.00, 0.00), (4700.00, 10.00), 2.50
M 15.10000 12 (1700.00, 6000.00, 0.00), (1700.00, 10.00), 2.50
M 15.10000 13 (4700.00, 6000.00, 0.00), (4700.00, 10.00), 2.50
M 15.10000 12 (1700.00, 6000.00, 0.00), (1700.00, 10.00), 2.50
M 15.10000 13 (4700.00, 6000.00, 0.00), (4700.00, 10.00), 2.50
M 15.10000 12 (1700.00, 6000.00, 0.00), (1700.00, 10.00), 2.50
M 15.10000 13 (4700.00, 6000.00, 0.00), (4700.00, 10.00), 2.50
M 15.10000 12 (1700.00, 6000.00, 0.00), (1700.00, 10.00), 2.50
M 15.10000 13 (4700.00, 6000.00, 0.00), (4700.00, 10.00), 2.50
M 15.10000 12 (1700.00, 6000.00, 0.00), (1700.00, 10.00), 2.50
M 15.10000 13 (4700.00, 6000.00, 0.00), (4700.00, 10.00), 2.50
s 25.000025000 _3_ MAC  --- 1 vectorbasedforward 309 [0 3000000 ffff0008 0] [energy 199995.000000 ei 5.000 es 0.000 et 0.000 er 0.000] ------- [60:309 1:0 0 0] 
M 15.10000 12 (1700.00, 6000.00, 0.00), (1700.00, 10.00), 2.50
M 15.10000 13 (4700.00, 6000.00, 0.00), (4700.00, 10.00), 2.50
M 15.10000 12 (1700.00, 6000.00, 0.00), (1700.00, 10.00), 2.50
M 15.10000 13 (4700.00, 6000.00, 0.00), (4700.00, 10.00), 2.50
M 15.10000 12 (1700.00, 6000.00, 0.00), (1700.00, 10.00), 2.50
M 15.10000 13 (4700.00, 6000.00, 0.00), (4700.00, 10.00), 2.50
r 28.555458317 _12_ MAC  --- 1 vectorbasedforward 300 [0 3000000 ffff0008 0] [energy 199992.311308 ei 5.217 es 0.000 et 0.000 er 2.472] ------- [60:300 1:0 0 0] 
r 28.778608746 _13_ MAC  --- 1 vectorbasedforward 300 [0 3000000 ffff0008 0] [energy 199992.266678 ei 5.261 es 0.000 et 0.000 er 2.472] ------- [60:300 1:0 0 0] 
r 28.805358333 _0_ MAC  --- 1 vectorbasedforward 300 [0 3000000 ffff0008 0] [energy 199992.261328 ei 5.267 es 0.000 et 0.000 er 2.472] ------- [60:300 1:0 0 0] 
r 28.805358333 _4_ MAC  --- 1 vectorbasedforward 300 [0 3000000 ffff0008 0] [energy 199992.261328 ei 5.267 es 0.000 et 0.000 er 2.472] ------- [60:300 1:0 0 0] 
r 28.805358333 _6_ MAC  --- 1 vectorbasedforward 300 [0 3000000 ffff0008 0] [energy 199992.261328 ei 5.267 es 0.000 et 0.000 er 2.472] ------- [60:300 1:0 0 0] 
M 15.10000 12 (1700.00, 6000.00, 0.00), (1700.00, 10.00), 2.50
M 15.10000 13 (4700.00, 6000.00, 0.00), (4700.00, 10.00), 2.50
r 29.357643083 _1_ MAC  --- 1 vectorbasedforward 300 [0 3000000 ffff0008 0] [energy 199992.150871 ei 5.377 es 0.000 et 0.000 er 2.472] ------- [60:300 1:0 0 0] 
r 29.357643083 _7_ MAC  --- 1 vectorbasedforward 300 [0 3000000 ffff0008 0] [energy 199992.150871 ei 5.377 es 0.000 et 0.000 er 2.472] ------- [60:300 1:0 0 0] 
M 15.10000 12 (1700.00, 6000.00, 0.00), (1700.00, 10.00), 2.50
M 15.10000 13 (4700.00, 6000.00, 0.00), (4700.00, 10.00), 2.50
M 15.10000 12 (1700.00, 6000.00, 0.00), (1700.00, 10.00), 2.50
M 15.10000 13 (4700.00, 6000.00, 0.00), (4700.00, 10.00), 2.50
M 15.10000 12 (1700.00, 6000.00, 0.00), (1700.00, 10.00), 2.50
M 15.10000 13 (4700.00, 6000.00, 0.00), (4700.00, 10.00), 2.50
M 15.10000 12 (1700.00, 6000.00, 0.00), (1700.00, 10.00), 2.50
M 15.10000 13 (4700.00, 6000.00, 0.00), (4700.00, 10.00), 2.50
s 33.537264539 _6_ MAC  --- 2 vectorbasedforward 309 [0 6000000 ffff0008 0] [energy 199991.422400 ei 6.106 es 0.000 et 0.000 er 2.472] ------- [60:309 2:0 0 0] 
M 15.10000 12 (1700.00, 6000.00, 0.00), (1700.00, 10.00), 2.50
M 15.10000 13 (4700.00, 6000.00, 0.00), (4700.00, 10.00), 2.50
M 15.10000 12 (1700.00, 6000.00, 0.00), (1700.00, 10.00), 2.50
M 15.10000 13 (4700.00, 6000.00, 0.00), (4700.00, 10.00), 2.50
M 15.10000 12 (1700.00, 6000.00, 0.00), (1700.00, 10.00), 2.50
M 15.10000 13 (4700.00, 6000.00, 0.00), (4700.00, 10.00), 2.50
r 36.675910624 _13_ MAC  --- 2 vectorbasedforward 300 [0 6000000 ffff0008 0] [energy 199988.709618 ei 6.346 es 0.000 et 0.000 er 4.944] ------- [60:300 2:0 0 0] 
M 15.10000 12 (1700.00, 6000.00, 0.00), (1700.00, 10.00), 2.50
M 15.10000 13 (4700.00, 6000.00, 0.00), (4700.00, 10.00), 2.50
r 37.342597872 _3_ MAC  --- 2 vectorbasedforward 300 [0 6000000 ffff0008 0] [energy 199916.888280 ei 6.480 es 0.000 et 74.160 er 2.472] ------- [60:300 2:0 0 0] 
r 37.342597872 _7_ MAC  --- 2 vectorbasedforward 300 [0 6000000 ffff0008 0] [energy 199988.576280 ei 6.480 es 0.000 et 0.000 er 4.944] ------- [60:300 2:0 0 0] 
r 37.342597872 _9_ MAC  --- 2 vectorbasedforward 300 [0 6000000 ffff0008 0] [energy 199990.553880 ei 6.974 es 0.000 et 0.000 er 2.472] ------- [60:300 2:0 0 0] 
r 37.894882622 _4_ MAC  --- 2 vectorbasedforward 300 [0 6000000 ffff0008 0] [energy 199988.465823 ei 6.590 es 0.000 et 0.000 er 4.944] ------- [60:300 2:0 0 0] 
r 37.894882622 _10_ MAC  --- 2 vectorbasedforward 300 [0 6000000 ffff0008 0] [energy 199990.443423 ei 7.085 es 0.000 et 0.000 er 2.472] ------- [60:300 2:0 0 0] 
M 15.10000 12 (1700.00, 6000.00, 0.00), (1700.00, 10.00), 2.50
M 15.10000 13 (4700.00, 6000.00, 0.00), (4700.00, 10.00), 2.50
s 38.569356320 _4_ MAC  --- 2 vectorbasedforward 309 [0 4000000 ffff0008 0] [energy 199988.444800 ei 6.611 es 0.000 et 0.000 er 4.944] ------- [60:309 2:0 0 0] 
M 15.10000 12 (1700.00, 6000.00, 0.00), (1700.00, 10.00), 2.50
M 15.10000 13 (4700.00, 6000.00, 0.00), (4700.00, 10.00), 2.50
s 39.000025000 _9_ MAC  --- 3 vectorbasedforward 309 [0 9000000 ffff0008 0] [energy 199990.222400 ei 7.306 es 0.000 et 0.000 er 2.472] ------- [60:309 3:0 0 0] 
M 15.10000 12 (1700.00, 6000.00, 0.00), (1700.00, 10.00), 2.50
M 15.10000 13 (4700.00, 6000.00, 0.00), (4700.00, 10.00), 2.50
M 15.10000 12 (1700.00, 6000.00, 0.00), (1700.00, 10.00), 2.50
M 15.10000 13 (4700.00, 6000.00, 0.00), (4700.00, 10.00), 2.50
M 15.10000 12 (1700.00, 6000.00, 0.00), (1700.00, 10.00), 2.50
M 15.10000 13 (4700.00, 6000.00, 0.00), (4700.00, 10.00), 2.50
r 42.374689654 _3_ MAC  --- 2 vectorbasedforward 300 [0 4000000 ffff0008 0] [energy 199913.904262 ei 6.992 es 0.000 et 74.160 er 4.944] ------- [60:300 2:0 0 0] 
r 42.374689654 _1_ MAC  --- 2 vectorbasedforward 300 [0 4000000 ffff0008 0] [energy 199987.569862 ei 7.486 es 0.000 et 0.000 er 4.944] ------- [60:300 2:0 0 0] 
r 42.374689654 _5_ MAC  --- 2 vectorbasedforward 300 [0 4000000 ffff0008 0] [energy 199989.547462 ei 7.981 es 0.000 et 0.000 er 2.472] ------- [60:300 2:0 0 0] 
r 42.805358333 _10_ MAC  --- 3 vectorbasedforward 300 [0 9000000 ffff0008 0] [energy 199987.483728 ei 7.572 es 0.000 et 0.000 er 4.944] ------- [60:300 3:0 0 0] 
r 42.926974404 _2_ MAC  --- 2 vectorbasedforward 300 [0 4000000 ffff0008 0] [energy 199989.437005 ei 8.091 es 0.000 et 0.000 er 2.472] ------- [60:300 2:0 0 0] 
r 42.926974404 _0_ MAC  --- 2 vectorbasedforward 300 [0 4000000 ffff0008 0] [energy 199987.459405 ei 7.597 es 0.000 et 0.000 er 4.944] ------- [60:300 2:0 0 0] 
r 42.926974404 _8_ MAC  --- 2 vectorbasedforward 300 [0 4000000 ffff0008 0] [energy 199989.437005 ei 8.091 es 0.000 et 0.000 er 2.472] ------- [60:300 2:0 0 0] 
M 15.10000 12 (1700.00, 6000.00, 0.00), (1700.00, 10.00), 2.50
M 15.10000 13 (4700.00, 6000.00, 0.00), (4700.00, 10.00), 2.50
r 43.128536722 _13_ MAC  --- 3 vectorbasedforward 300 [0 9000000 ffff0008 0] [energy 199985.441493 ei 7.143 es 0.000 et 0.000 er 7.416] ------- [60:300 3:0 0 0] 
M 15.10000 12 (1700.00, 6000.00, 0.00), (1700.00, 10.00), 2.50
M 15.10000 13 (4700.00, 6000.00, 0.00), (4700.00, 10.00), 2.50
M 15.10000 12 (1700.00, 6000.00, 0.00), (1700.00, 10.00), 2.50
M 15.10000 13 (4700.00, 6000.00, 0.00), (4700.00, 10.00), 2.50
M 15.10000 12 (1700.00, 6000.00, 0.00), (1700.00, 10.00), 2.50
M 15.10000 13 (4700.00, 6000.00, 0.00), (4700.00, 10.00), 2.50
M 15.10000 12 (1700.00, 6000.00, 0.00), (1700.00, 10.00), 2.50
M 15.10000 13 (4700.00, 6000.00, 0.00), (4700.00, 10.00), 2.50
M 15.10000 12 (1700.00, 6000.00, 0.00), (1700.00, 10.00), 2.50
M 15.10000 13 (4700.00, 6000.00, 0.00), (4700.00, 10.00), 2.50
M 15.10000 12 (1700.00, 6000.00, 0.00), (1700.00, 10.00), 2.50
M 15.10000 13 (4700.00, 6000.00, 0.00), (4700.00, 10.00), 2.50
M 15.10000 12 (1700.00, 6000.00, 0.00), (1700.00, 10.00), 2.50
M 15.10000 13 (4700.00, 6000.00, 0.00), (4700.00, 10.00), 2.50
s 50.250025000 _0_ MAC  --- 4 vectorbasedforward 309 [0 0 ffff0008 0] [energy 199986.044800 ei 9.011 es 0.000 et 0.000 er 4.944] ------- [60:309 4:0 0 0] 
M 15.10000 12 (1700.00, 6000.00, 0.00), (1700.00, 10.00), 2.50
M 15.10000 13 (4700.00, 6000.00, 0.00), (4700.00, 10.00), 2.50
M 15.10000 12 (1700.00, 6000.00, 0.00), (1700.00, 10.00), 2.50
M 15.10000 13 (4700.00, 6000.00, 0.00), (4700.00, 10.00), 2.50
M 15.10000 12 (1700.00, 6000.00, 0.00), (1700.00, 10.00), 2.50
M 15.10000 13 (4700.00, 6000.00, 0.00), (4700.00, 10.00), 2.50
r 53.488538579 _12_ MAC  --- 4 vectorbasedforward 300 [0 0 ffff0008 0] [energy 199985.347092 ei 9.709 es 0.000 et 0.000 er 4.944] ------- [60:300 4:0 0 0] 
M 15.10000 12 (1700.00, 6000.00, 0.00), (1700.00, 10.00), 2.50
M 15.10000 13 (4700.00, 6000.00, 0.00), (4700.00, 10.00), 2.50
r 54.055358333 _1_ MAC  --- 4 vectorbasedforward 300 [0 0 ffff0008 0] [energy 199983.256128 ei 9.328 es 0.000 et 0.000 er 7.416] ------- [60:300 4:0 0 0] 
r 54.055358333 _3_ MAC  --- 4 vectorbasedforward 300 [0 0 ffff0008 0] [energy 199909.590528 ei 8.833 es 0.000 et 74.160 er 7.416] ------- [60:300 4:0 0 0] 
r 54.607643083 _4_ MAC  --- 4 vectorbasedforward 300 [0 0 ffff0008 0] [energy 199909.480071 ei 8.944 es 0.000 et 74.160 er 7.416] ------- [60:300 4:0 0 0] 
M 15.10000 12 (1700.00, 6000.00, 0.00), (1700.00, 10.00), 2.50
M 15.10000 13 (4700.00, 6000.00, 0.00), (4700.00, 10.00), 2.50
M 15.10000 12 (1700.00, 6000.00, 0.00), (1700.00, 10.00), 2.50
M 15.10000 13 (4700.00, 6000.00, 0.00), (4700.00, 10.00), 2.50
s 56.777505801 _3_ MAC  --- 5 vectorbasedforward 309 [0 3000000 ffff0008 0] [energy 199909.201600 ei 9.222 es 0.000 et 74.160 er 7.416] ------- [60:309 5:0 0 0] 
M 15.10000 12 (1700.00, 6000.00, 0.00), (1700.00, 10.00), 2.50
M 15.10000 13 (4700.00, 6000.00, 0.00), (4700.00, 10.00), 2.50
M 15.10000 12 (1700.00, 6000.00, 0.00), (1700.00, 10.00), 2.50
M 15.10000 13 (4700.00, 6000.00, 0.00), (4700.00, 10.00), 2.50
M 15.10000 12 (1700.00, 6000.00, 0.00), (1700.00, 10.00), 2.50
M 15.10000 13 (4700.00, 6000.00, 0.00), (4700.00, 10.00), 2.50
M 15.10000 12 (1700.00, 6000.00, 0.00), (1700.00, 10.00), 2.50
M 15.10000 13 (4700.00, 6000.00, 0.00), (4700.00, 10.00), 2.50
r 60.302009443 _12_ MAC  --- 5 vectorbasedforward 300 [0 3000000 ffff0008 0] [energy 199982.006798 ei 10.577 es 0.000 et 0.000 er 7.416] ------- [60:300 5:0 0 0] 
r 60.530558981 _13_ MAC  --- 5 vectorbasedforward 300 [0 3000000 ffff0008 0] [energy 199979.983488 ei 10.129 es 0.000 et 0.000 er 9.888] ------- [60:300 5:0 0 0] 
r 60.582839134 _0_ MAC  --- 5 vectorbasedforward 300 [0 3000000 ffff0008 0] [energy 199908.285032 ei 10.139 es 0.000 et 74.160 er 7.416] ------- [60:300 5:0 0 0] 
r 60.582839134 _4_ MAC  --- 5 vectorbasedforward 300 [0 3000000 ffff0008 0] [energy 199906.307432 ei 9.645 es 0.000 et 74.160 er 9.888] ------- [60:300 5:0 0 0] 
r 60.582839134 _6_ MAC  --- 5 vectorbasedforward 300 [0 3000000 ffff0008 0] [energy 199908.187739 ei 10.115 es 0.000 et 74.160 er 7.538] ------- [60:300 5:0 0 0] 
M 15.10000 12 (1700.00, 6000.00, 0.00), (1700.00, 10.00), 2.50
M 15.10000 13 (4700.00, 6000.00, 0.00), (4700.00, 10.00), 2.50
r 61.135123884 _1_ MAC  --- 5 vectorbasedforward 300 [0 3000000 ffff0008 0] [energy 199979.862575 ei 10.249 es 0.000 et 0.000 er 9.888] ------- [60:300 5:0 0 0] 
r 61.135123884 _7_ MAC  --- 5 vectorbasedforward 300 [0 3000000 ffff0008 0] [energy 199979.076212 ei 10.053 es 0.000 et 0.000 er 10.871] ------- [60:300 5:0 0 0] 
M 15.10000 12 (1700.00, 6000.00, 0.00), (1700.00, 10.00), 2.50
M 15.10000 13 (4700.00, 6000.00, 0.00), (4700.00, 10.00), 2.50
M 15.10000 12 (1700.00, 6000.00, 0.00), (1700.00, 10.00), 2.50
M 15.10000 13 (4700.00, 6000.00, 0.00), (4700.00, 10.00), 2.50
M 15.10000 12 (1700.00, 6000.00, 0.00), (1700.00, 10.00), 2.50
M 15.10000 13 (4700.00, 6000.00, 0.00), (4700.00, 10.00), 2.50
M 15.10000 12 (1700.00, 6000.00, 0.00), (1700.00, 10.00), 2.50
M 15.10000 13 (4700.00, 6000.00, 0.00), (4700.00, 10.00), 2.50
M 15.10000 12 (1700.00, 6000.00, 0.00), (1700.00, 10.00), 2.50
M 15.10000 13 (4700.00, 6000.00, 0.00), (4700.00, 10.00), 2.50
M 15.10000 12 (1700.00, 6000.00, 0.00), (1700.00, 10.00), 2.50
M 15.10000 13 (4700.00, 6000.00, 0.00), (4700.00, 10.00), 2.50
M 15.10000 12 (1700.00, 6000.00, 0.00), (1700.00, 10.00), 2.50
M 15.10000 13 (4700.00, 6000.00, 0.00), (4700.00, 10.00), 2.50
M 15.10000 12 (1700.00, 6000.00, 0.00), (1700.00, 10.00), 2.50
M 15.10000 13 (4700.00, 6000.00, 0.00), (4700.00, 10.00), 2.50
M 15.10000 12 (1700.00, 6000.00, 0.00), (1700.00, 10.00), 2.50
M 15.10000 13 (4700.00, 6000.00, 0.00), (4700.00, 10.00), 2.50
s 70.250025000 _9_ MAC  --- 7 vectorbasedforward 309 [0 9000000 ffff0008 0] [energy 199910.356800 ei 13.011 es 0.000 et 74.160 er 2.472] ------- [60:309 7:0 0 0] 
M 15.10000 12 (1700.00, 6000.00, 0.00), (1700.00, 10.00), 2.50
M 15.10000 13 (4700.00, 6000.00, 0.00), (4700.00, 10.00), 2.50
M 15.10000 12 (1700.00, 6000.00, 0.00), (1700.00, 10.00), 2.50
M 15.10000 13 (4700.00, 6000.00, 0.00), (4700.00, 10.00), 2.50
M 15.10000 12 (1700.00, 6000.00, 0.00), (1700.00, 10.00), 2.50
M 15.10000 13 (4700.00, 6000.00, 0.00), (4700.00, 10.00), 2.50
M 15.10000 12 (1700.00, 6000.00, 0.00), (1700.00, 10.00), 2.50
M 15.10000 13 (4700.00, 6000.00, 0.00), (4700.00, 10.00), 2.50
r 74.055358333 _6_ MAC  --- 7 vectorbasedforward 300 [0 9000000 ffff0008 0] [energy 199903.515635 ei 12.315 es 0.000 et 74.160 er 10.010] ------- [60:300 7:0 0 0] 
r 74.055358333 _10_ MAC  --- 7 vectorbasedforward 300 [0 9000000 ffff0008 0] [energy 199979.256128 ei 13.328 es 0.000 et 0.000 er 7.416] ------- [60:300 7:0 0 0] 
r 74.359537939 _13_ MAC  --- 7 vectorbasedforward 300 [0 9000000 ffff0008 0] [energy 199975.240092 ei 12.400 es 0.000 et 0.000 er 12.360] ------- [60:300 7:0 0 0] 
r 74.607643083 _7_ MAC  --- 7 vectorbasedforward 300 [0 9000000 ffff0008 0] [energy 199974.404109 ei 12.253 es 0.000 et 0.000 er 13.343] ------- [60:300 7:0 0 0] 
M 15.10000 12 (1700.00, 6000.00, 0.00), (1700.00, 10.00), 2.50
M 15.10000 13 (4700.00, 6000.00, 0.00), (4700.00, 10.00), 2.50
M 15.10000 12 (1700.00, 6000.00, 0.00), (1700.00, 10.00), 2.50
M 15.10000 13 (4700.00, 6000.00, 0.00), (4700.00, 10.00), 2.50
M 15.10000 12 (1700.00, 6000.00, 0.00), (1700.00, 10.00), 2.50
M 15.10000 13 (4700.00, 6000.00, 0.00), (4700.00, 10.00), 2.50
M 15.10000 12 (1700.00, 6000.00, 0.00), (1700.00, 10.00), 2.50
M 15.10000 13 (4700.00, 6000.00, 0.00), (4700.00, 10.00), 2.50
M 15.10000 12 (1700.00, 6000.00, 0.00), (1700.00, 10.00), 2.50
M 15.10000 13 (4700.00, 6000.00, 0.00), (4700.00, 10.00), 2.50
M 15.10000 12 (1700.00, 6000.00, 0.00), (1700.00, 10.00), 2.50
M 15.10000 13 (4700.00, 6000.00, 0.00), (4700.00, 10.00), 2.50
M 15.10000 12 (1700.00, 6000.00, 0.00), (1700.00, 10.00), 2.50
M 15.10000 13 (4700.00, 6000.00, 0.00), (4700.00, 10.00), 2.50
s 81.500025000 _0_ MAC  --- 8 vectorbasedforward 309 [0 0 ffff0008 0] [energy 199904.201600 ei 14.222 es 0.000 et 74.160 er 7.416] ------- [60:309 8:0 0 0] 
M 15.10000 12 (1700.00, 6000.00, 0.00), (1700.00, 10.00), 2.50
M 15.10000 13 (4700.00, 6000.00, 0.00), (4700.00, 10.00), 2.50
M 15.10000 12 (1700.00, 6000.00, 0.00), (1700.00, 10.00), 2.50
M 15.10000 13 (4700.00, 6000.00, 0.00), (4700.00, 10.00), 2.50
M 15.10000 12 (1700.00, 6000.00, 0.00), (1700.00, 10.00), 2.50
M 15.10000 13 (4700.00, 6000.00, 0.00), (4700.00, 10.00), 2.50
r 84.697913236 _12_ MAC  --- 8 vectorbasedforward 300 [0 0 ffff0008 0] [energy 199975.150017 ei 14.962 es 0.000 et 0.000 er 9.888] ------- [60:300 8:0 0 0] 
M 15.10000 12 (1700.00, 6000.00, 0.00), (1700.00, 10.00), 2.50
M 15.10000 13 (4700.00, 6000.00, 0.00), (4700.00, 10.00), 2.50
r 85.305358333 _1_ MAC  --- 8 vectorbasedforward 300 [0 0 ffff0008 0] [energy 199973.050928 ei 14.589 es 0.000 et 0.000 er 12.360] ------- [60:300 8:0 0 0] 
r 85.305358333 _3_ MAC  --- 8 vectorbasedforward 300 [0 0 ffff0008 0] [energy 199827.697328 ei 14.095 es 0.000 et 148.320 er 9.888] ------- [60:300 8:0 0 0] 
r 85.857643083 _4_ MAC  --- 8 vectorbasedforward 300 [0 0 ffff0008 0] [energy 199899.274871 ei 14.205 es 0.000 et 74.160 er 12.360] ------- [60:300 8:0 0 0] 
M 15.10000 12 (1700.00, 6000.00, 0.00), (1700.00, 10.00), 2.50
M 15.10000 13 (4700.00, 6000.00, 0.00), (4700.00, 10.00), 2.50
M 15.10000 12 (1700.00, 6000.00, 0.00), (1700.00, 10.00), 2.50
M 15.10000 13 (4700.00, 6000.00, 0.00), (4700.00, 10.00), 2.50
s 87.835597485 _3_ MAC  --- 9 vectorbasedforward 309 [0 3000000 ffff0008 0] [energy 199827.358400 ei 14.434 es 0.000 et 148.320 er 9.888] ------- [60:309 9:0 0 0] 
M 15.10000 12 (1700.00, 6000.00, 0.00), (1700.00, 10.00), 2.50
M 15.10000 13 (4700.00, 6000.00, 0.00), (4700.00, 10.00), 2.50
M 15.10000 12 (1700.00, 6000.00, 0.00), (1700.00, 10.00), 2.50
M 15.10000 13 (4700.00, 6000.00, 0.00), (4700.00, 10.00), 2.50
M 15.10000 12 (1700.00, 6000.00, 0.00), (1700.00, 10.00), 2.50
M 15.10000 13 (4700.00, 6000.00, 0.00), (4700.00, 10.00), 2.50
M 15.10000 12 (1700.00, 6000.00, 0.00), (1700.00, 10.00), 2.50
M 15.10000 13 (4700.00, 6000.00, 0.00), (4700.00, 10.00), 2.50
r 91.331617326 _12_ MAC  --- 9 vectorbasedforward 300 [0 3000000 ffff0008 0] [energy 199971.845677 ei 15.794 es 0.000 et 0.000 er 12.360] ------- [60:300 9:0 0 0] 
r 91.565353411 _13_ MAC  --- 9 vectorbasedforward 300 [0 3000000 ffff0008 0] [energy 199969.821329 ei 15.347 es 0.000 et 0.000 er 14.832] ------- [60:300 9:0 0 0] 
r 91.640930818 _0_ MAC  --- 9 vectorbasedforward 300 [0 3000000 ffff0008 0] [energy 199826.430214 ei 15.362 es 0.000 et 148.320 er 9.888] ------- [60:300 9:0 0 0] 
r 91.640930818 _4_ MAC  --- 9 vectorbasedforward 300 [0 3000000 ffff0008 0] [energy 199896.140614 ei 14.867 es 0.000 et 74.160 er 14.832] ------- [60:300 9:0 0 0] 
r 91.640930818 _6_ MAC  --- 9 vectorbasedforward 300 [0 3000000 ffff0008 0] [energy 199898.020921 ei 15.337 es 0.000 et 74.160 er 12.482] ------- [60:300 9:0 0 0] 
M 15.10000 12 (1700.00, 6000.00, 0.00), (1700.00, 10.00), 2.50
M 15.10000 13 (4700.00, 6000.00, 0.00), (4700.00, 10.00), 2.50
r 92.193215568 _1_ MAC  --- 9 vectorbasedforward 300 [0 3000000 ffff0008 0] [energy 199969.695757 ei 15.472 es 0.000 et 0.000 er 14.832] ------- [60:300 9:0 0 0] 
r 92.193215568 _7_ MAC  --- 9 vectorbasedforward 300 [0 3000000 ffff0008 0] [energy 199968.909394 ei 15.276 es 0.000 et 0.000 er 15.815] ------- [60:300 9:0 0 0] 
M 15.10000 12 (1700.00, 6000.00, 0.00), (1700.00, 10.00), 2.50
M 15.10000 13 (4700.00, 6000.00, 0.00), (4700.00, 10.00), 2.50
M 15.10000 12 (1700.00, 6000.00, 0.00), (1700.00, 10.00), 2.50
M 15.10000 13 (4700.00, 6000.00, 0.00), (4700.00, 10.00), 2.50
M 15.10000 12 (1700.00, 6000.00, 0.00), (1700.00, 10.00), 2.50
M 15.10000 13 (4700.00, 6000.00, 0.00), (4700.00, 10.00), 2.50
M 15.10000 12 (1700.00, 6000.00, 0.00), (1700.00, 10.00), 2.50
M 15.10000 13 (4700.00, 6000.00, 0.00), (4700.00, 10.00), 2.50
M 15.10000 12 (1700.00, 6000.00, 0.00), (1700.00, 10.00), 2.50
M 15.10000 13 (4700.00, 6000.00, 0.00), (4700.00, 10.00), 2.50
M 15.10000 12 (1700.00, 6000.00, 0.00), (1700.00, 10.00), 2.50
M 15.10000 13 (4700.00, 6000.00, 0.00), (4700.00, 10.00), 2.50
M 15.10000 12 (1700.00, 6000.00, 0.00), (1700.00, 10.00), 2.50
M 15.10000 13 (4700.00, 6000.00, 0.00), (4700.00, 10.00), 2.50
s 99.307649772 _6_ MAC  --- 10 vectorbasedforward 309 [0 6000000 ffff0008 0] [energy 199896.549107 ei 16.809 es 0.000 et 74.160 er 12.482] ------- [60:309 10:0 0 0] 
M 15.10000 12 (1700.00, 6000.00, 0.00), (1700.00, 10.00), 2.50
M 15.10000 13 (4700.00, 6000.00, 0.00), (4700.00, 10.00), 2.50
M 15.10000 12 (1700.00, 6000.00, 0.00), (1700.00, 10.00), 2.50
M 15.10000 13 (4700.00, 6000.00, 0.00), (4700.00, 10.00), 2.50
M 15.10000 12 (1700.00, 6000.00, 0.00), (1700.00, 10.00), 2.50
M 15.10000 13 (4700.00, 6000.00, 0.00), (4700.00, 10.00), 2.50
r 102.342689164 _13_ MAC  --- 10 vectorbasedforward 300 [0 6000000 ffff0008 0] [energy 199965.688262 ei 17.008 es 0.000 et 0.000 er 17.304] ------- [60:300 10:0 0 0] 
M 15.10000 12 (1700.00, 6000.00, 0.00), (1700.00, 10.00), 2.50
M 15.10000 13 (4700.00, 6000.00, 0.00), (4700.00, 10.00), 2.50
r 103.112983105 _3_ MAC  --- 10 vectorbasedforward 300 [0 6000000 ffff0008 0] [energy 199748.492603 ei 16.667 es 0.000 et 222.480 er 12.360] ------- [60:300 10:0 0 0] 
r 103.112983105 _7_ MAC  --- 10 vectorbasedforward 300 [0 6000000 ffff0008 0] [energy 199964.747841 ei 16.965 es 0.000 et 0.000 er 18.287] ------- [60:300 10:0 0 0] 
r 103.112983105 _9_ MAC  --- 10 vectorbasedforward 300 [0 6000000 ffff0008 0] [energy 199828.091003 ei 18.645 es 0.000 et 148.320 er 4.944] ------- [60:300 10:0 0 0] 
r 103.665267855 _4_ MAC  --- 10 vectorbasedforward 300 [0 6000000 ffff0008 0] [energy 199891.758146 ei 16.778 es 0.000 et 74.160 er 17.304] ------- [60:300 10:0 0 0] 
r 103.665267855 _10_ MAC  --- 10 vectorbasedforward 300 [0 6000000 ffff0008 0] [energy 199971.356546 ei 18.755 es 0.000 et 0.000 er 9.888] ------- [60:300 10:0 0 0] 
M 15.10000 12 (1700.00, 6000.00, 0.00), (1700.00, 10.00), 2.50
M 15.10000 13 (4700.00, 6000.00, 0.00), (4700.00, 10.00), 2.50
M 15.10000 12 (1700.00, 6000.00, 0.00), (1700.00, 10.00), 2.50
M 15.10000 13 (4700.00, 6000.00, 0.00), (4700.00, 10.00), 2.50
s 105.732962756 _9_ MAC  --- 11 vectorbasedforward 309 [0 9000000 ffff0008 0] [energy 199827.713600 ei 19.022 es 0.000 et 148.320 er 4.944] ------- [60:309 11:0 0 0] 
M 15.10000 12 (1700.00, 6000.00, 0.00), (1700.00, 10.00), 2.50
M 15.10000 13 (4700.00, 6000.00, 0.00), (4700.00, 10.00), 2.50
M 15.10000 12 (1700.00, 6000.00, 0.00), (1700.00, 10.00), 2.50
M 15.10000 13 (4700.00, 6000.00, 0.00), (4700.00, 10.00), 2.50
s 107.692028134 _4_ MAC  --- 10 vectorbasedforward 309 [0 4000000 ffff0008 0] [energy 199891.091200 ei 17.445 es 0.000 et 74.160 er 17.304] ------- [60:309 10:0 0 0] 
M 15.10000 12 (1700.00, 6000.00, 0.00), (1700.00, 10.00), 2.50
M 15.10000 13 (4700.00, 6000.00, 0.00), (4700.00, 10.00), 2.50
M 15.10000 12 (1700.00, 6000.00, 0.00), (1700.00, 10.00), 2.50
M 15.10000 13 (4700.00, 6000.00, 0.00), (4700.00, 10.00), 2.50
r 109.538296090 _6_ MAC  --- 11 vectorbasedforward 300 [0 9000000 ffff0008 0] [energy 199818.798248 ei 17.928 es 0.000 et 148.320 er 14.954] ------- [60:300 11:0 0 0] 
r 109.538296090 _10_ MAC  --- 11 vectorbasedforward 300 [0 9000000 ffff0008 0] [energy 199968.204341 ei 19.436 es 0.000 et 0.000 er 12.360] ------- [60:300 11:0 0 0] 
r 109.822666860 _13_ MAC  --- 11 vectorbasedforward 300 [0 9000000 ffff0008 0] [energy 199962.214667 ei 18.009 es 0.000 et 0.000 er 19.776] ------- [60:300 11:0 0 0] 
M 15.10000 12 (1700.00, 6000.00, 0.00), (1700.00, 10.00), 2.50
M 15.10000 13 (4700.00, 6000.00, 0.00), (4700.00, 10.00), 2.50
M 15.10000 12 (1700.00, 6000.00, 0.00), (1700.00, 10.00), 2.50
M 15.10000 13 (4700.00, 6000.00, 0.00), (4700.00, 10.00), 2.50
r 111.497361467 _3_ MAC  --- 10 vectorbasedforward 300 [0 4000000 ffff0008 0] [energy 199744.838128 ei 17.850 es 0.000 et 222.480 er 14.832] ------- [60:300 10:0 0 0] 
r 111.497361467 _1_ MAC  --- 10 vectorbasedforward 300 [0 4000000 ffff0008 0] [energy 199963.857328 ei 18.839 es 0.000 et 0.000 er 17.304] ------- [60:300 10:0 0 0] 
r 111.497361467 _5_ MAC  --- 10 vectorbasedforward 300 [0 4000000 ffff0008 0] [energy 199973.745328 ei 21.311 es 0.000 et 0.000 er 4.944] ------- [60:300 10:0 0 0] 
M 15.10000 12 (1700.00, 6000.00, 0.00), (1700.00, 10.00), 2.50
M 15.10000 13 (4700.00, 6000.00, 0.00), (4700.00, 10.00), 2.50
r 112.049646217 _2_ MAC  --- 10 vectorbasedforward 300 [0 4000000 ffff0008 0] [energy 199973.634871 ei 21.421 es 0.000 et 0.000 er 4.944] ------- [60:300 10:0 0 0] 
r 112.049646217 _0_ MAC  --- 10 vectorbasedforward 300 [0 4000000 ffff0008 0] [energy 199820.370871 ei 18.949 es 0.000 et 148.320 er 12.360] ------- [60:300 10:0 0 0] 
r 112.049646217 _6_ MAC  --- 10 vectorbasedforward 300 [0 4000000 ffff0008 0] [energy 199816.318378 ei 17.936 es 0.000 et 148.320 er 17.426] ------- [60:300 10:0 0 0] 
r 112.049646217 _8_ MAC  --- 10 vectorbasedforward 300 [0 4000000 ffff0008 0] [energy 199973.634871 ei 21.421 es 0.000 et 0.000 er 4.944] ------- [60:300 10:0 0 0] 
s 112.861585113 _2_ MAC  --- 10 vectorbasedforward 309 [0 2000000 ffff0008 0] [energy 199973.634871 ei 21.421 es 0.000 et 0.000 er 4.944] ------- [60:309 10:0 0 0] 
M 15.10000 12 (1700.00, 6000.00, 0.00), (1700.00, 10.00), 2.50
M 15.10000 13 (4700.00, 6000.00, 0.00), (4700.00, 10.00), 2.50
M 15.10000 12 (1700.00, 6000.00, 0.00), (1700.00, 10.00), 2.50
M 15.10000 13 (4700.00, 6000.00, 0.00), (4700.00, 10.00), 2.50
M 15.10000 12 (1700.00, 6000.00, 0.00), (1700.00, 10.00), 2.50
M 15.10000 13 (4700.00, 6000.00, 0.00), (4700.00, 10.00), 2.50
s 115.036515776 _0_ MAC  --- 12 vectorbasedforward 309 [0 0 ffff0008 0] [energy 199819.780800 ei 19.539 es 0.000 et 148.320 er 12.360] ------- [60:309 12:0 0 0] 
M 15.10000 12 (1700.00, 6000.00, 0.00), (1700.00, 10.00), 2.50
M 15.10000 13 (4700.00, 6000.00, 0.00), (4700.00, 10.00), 2.50
r 116.666918447 _5_ MAC  --- 10 vectorbasedforward 300 [0 2000000 ffff0008 0] [energy 199970.733816 ei 21.850 es 0.000 et 0.000 er 7.416] ------- [60:300 10:0 0 0] 
M 15.10000 12 (1700.00, 6000.00, 0.00), (1700.00, 10.00), 2.50
M 15.10000 13 (4700.00, 6000.00, 0.00), (4700.00, 10.00), 2.50
M 15.10000 12 (1700.00, 6000.00, 0.00), (1700.00, 10.00), 2.50
M 15.10000 13 (4700.00, 6000.00, 0.00), (4700.00, 10.00), 2.50
r 118.192535948 _12_ MAC  --- 12 vectorbasedforward 300 [0 0 ffff0008 0] [energy 199964.495893 ei 20.672 es 0.000 et 0.000 er 14.832] ------- [60:300 12:0 0 0] 
r 118.841849109 _3_ MAC  --- 12 vectorbasedforward 300 [0 0 ffff0008 0] [energy 199741.391630 ei 18.824 es 0.000 et 222.480 er 17.304] ------- [60:300 12:0 0 0] 
M 15.10000 12 (1700.00, 6000.00, 0.00), (1700.00, 10.00), 2.50
M 15.10000 13 (4700.00, 6000.00, 0.00), (4700.00, 10.00), 2.50
M 15.10000 12 (1700.00, 6000.00, 0.00), (1700.00, 10.00), 2.50
M 15.10000 13 (4700.00, 6000.00, 0.00), (4700.00, 10.00), 2.50
s 120.950602061 _3_ MAC  --- 13 vectorbasedforward 309 [0 3000000 ffff0008 0] [energy 199741.160000 ei 19.056 es 0.000 et 222.480 er 17.304] ------- [60:309 13:0 0 0] 
M 15.10000 12 (1700.00, 6000.00, 0.00), (1700.00, 10.00), 2.50
M 15.10000 13 (4700.00, 6000.00, 0.00), (4700.00, 10.00), 2.50
M 15.10000 12 (1700.00, 6000.00, 0.00), (1700.00, 10.00), 2.50
M 15.10000 13 (4700.00, 6000.00, 0.00), (4700.00, 10.00), 2.50
M 15.10000 12 (1700.00, 6000.00, 0.00), (1700.00, 10.00), 2.50
M 15.10000 13 (4700.00, 6000.00, 0.00), (4700.00, 10.00), 2.50
M 15.10000 12 (1700.00, 6000.00, 0.00), (1700.00, 10.00), 2.50
M 15.10000 13 (4700.00, 6000.00, 0.00), (4700.00, 10.00), 2.50
r 124.418320490 _12_ MAC  --- 13 vectorbasedforward 300 [0 3000000 ffff0008 0] [energy 199961.273136 ei 21.423 es 0.000 et 0.000 er 17.304] ------- [60:300 13:0 0 0] 
r 124.657425337 _13_ MAC  --- 13 vectorbasedforward 300 [0 3000000 ffff0008 0] [energy 199957.270115 ei 20.482 es 0.000 et 0.000 er 22.248] ------- [60:300 13:0 0 0] 
r 124.755935395 _0_ MAC  --- 13 vectorbasedforward 300 [0 3000000 ffff0008 0] [energy 199742.186413 ei 20.502 es 0.000 et 222.480 er 14.832] ------- [60:300 13:0 0 0] 
r 124.755935395 _4_ MAC  --- 13 vectorbasedforward 300 [0 3000000 ffff0008 0] [energy 199808.179268 ei 19.078 es 0.000 et 148.320 er 24.423] ------- [60:300 13:0 0 0] 
r 124.755935395 _6_ MAC  --- 13 vectorbasedforward 300 [0 3000000 ffff0008 0] [energy 199811.799520 ei 19.983 es 0.000 et 148.320 er 19.898] ------- [60:300 13:0 0 0] 
M 15.10000 12 (1700.00, 6000.00, 0.00), (1700.00, 10.00), 2.50
M 15.10000 13 (4700.00, 6000.00, 0.00), (4700.00, 10.00), 2.50
r 125.308220144 _1_ MAC  --- 13 vectorbasedforward 300 [0 3000000 ffff0008 0] [energy 199955.400011 ei 20.177 es 0.000 et 0.000 er 24.423] ------- [60:300 13:0 0 0] 
r 125.308220144 _7_ MAC  --- 13 vectorbasedforward 300 [0 3000000 ffff0008 0] [energy 199955.228169 ei 20.134 es 0.000 et 0.000 er 24.638] ------- [60:300 13:0 0 0] 
M 15.10000 12 (1700.00, 6000.00, 0.00), (1700.00, 10.00), 2.50
M 15.10000 13 (4700.00, 6000.00, 0.00), (4700.00, 10.00), 2.50
M 15.10000 12 (1700.00, 6000.00, 0.00), (1700.00, 10.00), 2.50
M 15.10000 13 (4700.00, 6000.00, 0.00), (4700.00, 10.00), 2.50
s 127.179833988 _6_ MAC  --- 14 vectorbasedforward 309 [0 6000000 ffff0008 0] [energy 199811.350707 ei 20.432 es 0.000 et 148.320 er 19.898] ------- [60:309 14:0 0 0] 
M 15.10000 12 (1700.00, 6000.00, 0.00), (1700.00, 10.00), 2.50
M 15.10000 13 (4700.00, 6000.00, 0.00), (4700.00, 10.00), 2.50
M 15.10000 12 (1700.00, 6000.00, 0.00), (1700.00, 10.00), 2.50
M 15.10000 13 (4700.00, 6000.00, 0.00), (4700.00, 10.00), 2.50
M 15.10000 12 (1700.00, 6000.00, 0.00), (1700.00, 10.00), 2.50
M 15.10000 13 (4700.00, 6000.00, 0.00), (4700.00, 10.00), 2.50
r 130.171711169 _13_ MAC  --- 14 vectorbasedforward 300 [0 6000000 ffff0008 0] [energy 199954.189658 ei 21.090 es 0.000 et 0.000 er 24.720] ------- [60:300 14:0 0 0] 
r 130.985167322 _3_ MAC  --- 14 vectorbasedforward 300 [0 6000000 ffff0008 0] [energy 199663.319767 ei 20.264 es 0.000 et 296.640 er 19.776] ------- [60:300 14:0 0 0] 
r 130.985167322 _7_ MAC  --- 14 vectorbasedforward 300 [0 6000000 ffff0008 0] [energy 199952.115179 ei 20.775 es 0.000 et 0.000 er 27.110] ------- [60:300 14:0 0 0] 
r 130.985167322 _9_ MAC  --- 14 vectorbasedforward 300 [0 6000000 ffff0008 0] [energy 199746.873367 ei 23.231 es 0.000 et 222.480 er 7.416] ------- [60:300 14:0 0 0] 
M 15.10000 12 (1700.00, 6000.00, 0.00), (1700.00, 10.00), 2.50