vectorbased
M 0.0 nn 14 x 10000 y 6000 z 0
M 0.0 prop Propagation/UnderwaterPropagation ant Antenna/OmniAntenna
M 15.10000 12 (2000.00, 6000.00, 0.00), (2000.00, 10.00), 2.50
M 15.10000 13 (6000.00, 6000.00, 0.00), (6000.00, 10.00), 2.50
s 15.190025000 _13_ MAC  --- 0 vectorbasedforward 60 [0 ffffffff d 800] [energy 199997.000000 ei 3.000 es 0.000 et 0.000 er 0.000] ------- [60:60 0:0 0 0] 
s 15.310025000 _12_ MAC  --- 1 vectorbasedforward 60 [0 ffffffff c 800] [energy 199997.000000 ei 3.000 es 0.000 et 0.000 er 0.000] ------- [60:60 1:0 0 0] 
M 15.10000 12 (2000.00, 6000.00, 0.00), (2000.00, 10.00), 2.50
M 15.10000 13 (6000.00, 6000.00, 0.00), (6000.00, 10.00), 2.50
r 16.420919952 _6_ MAC  --- 0 vectorbasedforward 60 [0 ffffffff d 800] [energy 199996.485262 ei 3.227 es 0.000 et 0.000 er 0.288] ------- [60:60 0:0 0 0] 
r 16.420919952 _9_ MAC  --- 0 vectorbasedforward 60 [0 ffffffff d 800] [energy 199996.485262 ei 3.227 es 0.000 et 0.000 er 0.288] ------- [60:60 0:0 0 0] 
r 16.540778557 _0_ MAC  --- 1 vectorbasedforward 60 [0 ffffffff c 800] [energy 199996.461291 ei 3.251 es 0.000 et 0.000 er 0.288] ------- [60:60 1:0 0 0] 
r 16.540778557 _3_ MAC  --- 1 vectorbasedforward 60 [0 ffffffff c 800] [energy 199996.461291 ei 3.251 es 0.000 et 0.000 er 0.288] ------- [60:60 1:0 0 0] 
s 16.550969952 _6_ MAC  --- 0 RTS 44 [ec70 d 6 0] [energy 199996.485262 ei 3.227 es 0.000 et 0.000 er 0.288] 
s 16.630969952 _9_ MAC  --- 0 RTS 44 [ec70 d 9 0] [energy 199996.485262 ei 3.227 es 0.000 et 0.000 er 0.288] 
M 15.10000 12 (2000.00, 6000.00, 0.00), (2000.00, 10.00), 2.50
M 15.10000 13 (6000.00, 6000.00, 0.00), (6000.00, 10.00), 2.50
s 17.030828557 _3_ MAC  --- 0 RTS 44 [ec70 c 3 0] [energy 199996.369446 ei 3.342 es 0.000 et 0.000 er 0.288] 
s 17.050828557 _0_ MAC  --- 0 RTS 44 [ec70 c 0 0] [energy 199996.369446 ei 3.342 es 0.000 et 0.000 er 0.288] 
D 17.571976458 _13_ MAC  COL 0 RTS 44 [ec70 d 6 0] [energy 199987.673366 ei 3.441 es 0.000 et 8.646 er 0.240] 
D 17.732168458 _13_ MAC  COL 0 RTS 44 [ec70 d 9 0] [energy 199987.673366 ei 3.441 es 0.000 et 8.646 er 0.240] 
D 17.991341335 _12_ MAC  COL 0 RTS 44 [ec70 c 3 0] [energy 199987.637437 ei 3.537 es 0.000 et 8.646 er 0.180] 
M 15.10000 12 (2000.00, 6000.00, 0.00), (2000.00, 10.00), 2.50
M 15.10000 13 (6000.00, 6000.00, 0.00), (6000.00, 10.00), 2.50
D 18.151533335 _12_ MAC  COL 0 RTS 44 [ec70 c 0 0] [energy 199987.637437 ei 3.537 es 0.000 et 8.646 er 0.180] 
M 15.10000 12 (2000.00, 6000.00, 0.00), (2000.00, 10.00), 2.50
M 15.10000 13 (6000.00, 6000.00, 0.00), (6000.00, 10.00), 2.50
M 15.10000 12 (2000.00, 6000.00, 0.00), (2000.00, 10.00), 2.50
M 15.10000 13 (6000.00, 6000.00, 0.00), (6000.00, 10.00), 2.50
s 20.983353952 _6_ MAC  --- 0 RTS 44 [ec70 d 6 0] [energy 199990.739418 ei 3.846 es 0.000 et 4.806 er 0.609] 
M 15.10000 12 (2000.00, 6000.00, 0.00), (2000.00, 10.00), 2.50
M 15.10000 13 (6000.00, 6000.00, 0.00), (6000.00, 10.00), 2.50
s 21.803212557 _3_ MAC  --- 0 RTS 44 [ec70 c 3 0] [energy 199990.539418 ei 4.046 es 0.000 et 4.806 er 0.609] 
s 21.983353952 _9_ MAC  --- 0 RTS 44 [ec70 d 9 0] [energy 199990.667571 ei 4.078 es 0.000 et 4.806 er 0.448] 
M 15.10000 12 (2000.00, 6000.00, 0.00), (2000.00, 10.00), 2.50
M 15.10000 13 (6000.00, 6000.00, 0.00), (6000.00, 10.00), 2.50
r 22.079447079 _13_ MAC  --- 0 RTS 44 [ec70 d 6 0] [energy 199986.675757 ei 4.278 es 0.000 et 8.646 er 0.400] 
s 22.089447079 _13_ MAC  --- 0 CTS 38 [f20 6 0 0] [energy 199986.675757 ei 4.278 es 0.000 et 8.646 er 0.400] 
s 22.523212557 _0_ MAC  --- 0 RTS 44 [ec70 c 0 0] [energy 199990.467571 ei 4.278 es 0.000 et 4.806 er 0.448] 
r 22.898347162 _12_ MAC  --- 0 RTS 44 [ec70 c 3 0] [energy 199986.559921 ei 4.454 es 0.000 et 8.646 er 0.340] 
s 22.908347162 _12_ MAC  --- 0 CTS 38 [f20 3 0 0] [energy 199986.559921 ei 4.454 es 0.000 et 8.646 er 0.340] 
M 15.10000 12 (2000.00, 6000.00, 0.00), (2000.00, 10.00), 2.50
M 15.10000 13 (6000.00, 6000.00, 0.00), (6000.00, 10.00), 2.50
D 23.078278085 _13_ MAC  BSY 0 RTS 44 [ec70 d 9 0] [energy 199983.004516 ei 4.423 es 0.000 et 12.012 er 0.560] 
r 23.136247277 _6_ MAC  --- 0 CTS 38 [f20 6 0 0] [energy 199985.248693 ei 4.419 es 0.000 et 9.612 er 0.721] 
D 23.617506226 _12_ MAC  BSY 0 RTS 44 [ec70 c 0 0] [energy 199982.944614 ei 4.543 es 0.000 et 12.012 er 0.501] 
D 23.856545891 _3_ MAC  COL 0 CTS 38 [f20 3 0 0] [energy 199984.894404 ei 4.551 es 0.000 et 9.612 er 0.944] 
M 15.10000 12 (2000.00, 6000.00, 0.00), (2000.00, 10.00), 2.50
M 15.10000 13 (6000.00, 6000.00, 0.00), (6000.00, 10.00), 2.50
s 24.427407285 _6_ MAC  --- 0 RTS 44 [ec70 d 6 0] [energy 199984.819635 ei 4.528 es 0.000 et 9.612 er 1.041] 
M 15.10000 12 (2000.00, 6000.00, 0.00), (2000.00, 10.00), 2.50
M 15.10000 13 (6000.00, 6000.00, 0.00), (6000.00, 10.00), 2.50
D 25.519480708 _13_ MAC  BSY 0 RTS 44 [ec70 d 6 0] [energy 199982.388122 ei 4.880 es 0.000 et 12.012 er 0.721] 
M 15.10000 12 (2000.00, 6000.00, 0.00), (2000.00, 10.00), 2.50
M 15.10000 13 (6000.00, 6000.00, 0.00), (6000.00, 10.00), 2.50
s 26.655596557 _3_ MAC  --- 0 RTS 44 [ec70 c 3 0] [energy 199984.369598 ei 4.915 es 0.000 et 9.612 er 1.104] 
M 15.10000 12 (2000.00, 6000.00, 0.00), (2000.00, 10.00), 2.50
M 15.10000 13 (6000.00, 6000.00, 0.00), (6000.00, 10.00), 2.50
s 27.195596557 _0_ MAC  --- 0 RTS 44 [ec70 c 0 0] [energy 199984.475942 ei 5.192 es 0.000 et 9.612 er 0.721] 
D 27.745078989 _12_ MAC  BSY 0 RTS 44 [ec70 c 3 0] [energy 199981.990945 ei 5.337 es 0.000 et 12.012 er 0.661] 
M 15.10000 12 (2000.00, 6000.00, 0.00), (2000.00, 10.00), 2.50
M 15.10000 13 (6000.00, 6000.00, 0.00), (6000.00, 10.00), 2.50
s 28.015737952 _9_ MAC  --- 0 RTS 44 [ec70 d 9 0] [energy 199984.147789 ei 5.360 es 0.000 et 9.612 er 0.881] 
D 28.284452212 _12_ MAC  BSY 0 RTS 44 [ec70 c 0 0] [energy 199981.754917 ei 5.413 es 0.000 et 12.012 er 0.821] 
M 15.10000 12 (2000.00, 6000.00, 0.00), (2000.00, 10.00), 2.50
M 15.10000 13 (6000.00, 6000.00, 0.00), (6000.00, 10.00), 2.50
r 29.103642530 _13_ MAC  --- 0 RTS 44 [ec70 d 9 0] [energy 199981.543136 ei 5.564 es 0.000 et 12.012 er 0.881] 
s 29.113642530 _13_ MAC  --- 0 CTS 38 [f20 9 0 0] [energy 199981.543136 ei 5.564 es 0.000 et 12.012 er 0.881] 
M 15.10000 12 (2000.00, 6000.00, 0.00), (2000.00, 10.00), 2.50
M 15.10000 13 (6000.00, 6000.00, 0.00), (6000.00, 10.00), 2.50
r 30.152275552 _9_ MAC  --- 0 CTS 38 [f20 9 0 0] [energy 199978.853858 ei 5.736 es 0.000 et 14.417 er 0.993] 
s 30.162275552 _9_ MAC  --- 3 vectorbasedforward 352 [dd50 d 9 800] [energy 199978.853858 ei 5.736 es 0.000 et 14.417 er 0.993] ------- [60:352 3:0 0 0] 
M 15.10000 12 (2000.00, 6000.00, 0.00), (2000.00, 10.00), 2.50
M 15.10000 13 (6000.00, 6000.00, 0.00), (6000.00, 10.00), 2.50
s 31.547980557 _3_ MAC  --- 0 RTS 44 [ec70 c 3 0] [energy 199978.467723 ei 5.851 es 0.000 et 14.417 er 1.264] 
M 15.10000 12 (2000.00, 6000.00, 0.00), (2000.00, 10.00), 2.50
M 15.10000 13 (6000.00, 6000.00, 0.00), (6000.00, 10.00), 2.50
r 32.631800897 _12_ MAC  --- 0 RTS 44 [ec70 c 3 0] [energy 199980.757294 ei 6.250 es 0.000 et 12.012 er 0.981] 
s 32.641800897 _12_ MAC  --- 0 CTS 38 [f20 3 0 0] [energy 199980.757294 ei 6.250 es 0.000 et 12.012 er 0.981] 
M 15.10000 12 (2000.00, 6000.00, 0.00), (2000.00, 10.00), 2.50
M 15.10000 13 (6000.00, 6000.00, 0.00), (6000.00, 10.00), 2.50
r 33.676360434 _3_ MAC  --- 0 CTS 38 [f20 3 0 0] [energy 199973.068975 ei 6.332 es 0.000 et 19.223 er 1.376] 
s 33.686360434 _3_ MAC  --- 5 vectorbasedforward 352 [dd50 c 3 800] [energy 199973.068975 ei 6.332 es 0.000 et 19.223 er 1.376] ------- [60:352 5:0 0 0] 
r 33.711695830 _13_ MAC  --- 3 vectorbasedforward 300 [dd50 d 9 800] [energy 199975.178850 ei 5.939 es 0.000 et 15.377 er 3.505] ------- [60:300 3:0 0 0] 
s 33.721695830 _13_ MAC  --- 0 ACK 38 [0 9 0 0] [energy 199975.178850 ei 5.939 es 0.000 et 15.377 er 3.505] 
M 15.10000 12 (2000.00, 6000.00, 0.00), (2000.00, 10.00), 2.50
M 15.10000 13 (6000.00, 6000.00, 0.00), (6000.00, 10.00), 2.50
s 34.370232434 _0_ MAC  --- 0 RTS 44 [ec70 c 0 0] [energy 199977.956160 ei 6.473 es 0.000 et 14.417 er 1.153] 
r 34.755012461 _9_ MAC  --- 0 ACK 38 [0 9 0 0] [energy 199899.642636 ei 6.109 es 0.000 et 93.143 er 1.105] 
M 15.10000 12 (2000.00, 6000.00, 0.00), (2000.00, 10.00), 2.50
M 15.10000 13 (6000.00, 6000.00, 0.00), (6000.00, 10.00), 2.50
D 35.290611516 _12_ MAC  COL 0 RTS 44 [ec70 c 0 0] [energy 199974.394635 ei 6.623 es 0.000 et 15.377 er 3.605] 
s 35.470025000 _13_ MAC  --- 6 vectorbasedforward 60 [0 ffffffff d 800] [energy 199971.577867 ei 6.174 es 0.000 et 18.743 er 3.505] ------- [60:60 6:0 0 0] 
M 15.10000 12 (2000.00, 6000.00, 0.00), (2000.00, 10.00), 2.50
M 15.10000 13 (6000.00, 6000.00, 0.00), (6000.00, 10.00), 2.50
D 36.389141299 _6_ MAC  COL 6 vectorbasedforward 60 [0 ffffffff d 800] [energy 199972.682615 ei 6.066 es 0.000 et 14.417 er 6.834] ------- [60:60 6:0 0 0] 
r 36.677333299 _9_ MAC  --- 6 vectorbasedforward 60 [0 ffffffff d 800] [energy 199899.027618 ei 6.436 es 0.000 et 93.143 er 1.394] ------- [60:60 6:0 0 0] 
M 15.10000 12 (2000.00, 6000.00, 0.00), (2000.00, 10.00), 2.50
M 15.10000 13 (6000.00, 6000.00, 0.00), (6000.00, 10.00), 2.50
D 37.231717705 _12_ MAC  COL 5 vectorbasedforward 352 [dd50 c 3 800] [energy 199974.394635 ei 6.623 es 0.000 et 15.377 er 3.605] ------- [60:352 5:0 0 0] 
M 15.10000 12 (2000.00, 6000.00, 0.00), (2000.00, 10.00), 2.50
M 15.10000 13 (6000.00, 6000.00, 0.00), (6000.00, 10.00), 2.50
M 15.10000 12 (2000.00, 6000.00, 0.00), (2000.00, 10.00), 2.50
M 15.10000 13 (6000.00, 6000.00, 0.00), (6000.00, 10.00), 2.50
s 39.714189767 _6_ MAC  --- 0 RTS 44 [ec70 d 6 0] [energy 199972.411392 ei 6.337 es 0.000 et 14.417 er 6.834] 
s 39.893864897 _12_ MAC  --- 7 vectorbasedforward 60 [0 ffffffff c 800] [energy 199974.040979 ei 6.976 es 0.000 et 15.377 er 3.605] ------- [60:60 7:0 0 0] 
M 15.10000 12 (2000.00, 6000.00, 0.00), (2000.00, 10.00), 2.50
M 15.10000 13 (6000.00, 6000.00, 0.00), (6000.00, 10.00), 2.50
s 40.482744434 _3_ MAC  --- 0 RTS 44 [ec70 c 3 0] [energy 199893.603326 ei 7.072 es 0.000 et 97.949 er 1.376] 
r 40.788643015 _13_ MAC  --- 0 RTS 44 [ec70 d 6 0] [energy 199961.703863 ei 7.242 es 0.000 et 27.389 er 3.665] 
s 40.798643015 _13_ MAC  --- 0 CTS 38 [f20 6 0 0] [energy 199961.703863 ei 7.242 es 0.000 et 27.389 er 3.665] 
M 15.10000 12 (2000.00, 6000.00, 0.00), (2000.00, 10.00), 2.50
M 15.10000 13 (6000.00, 6000.00, 0.00), (6000.00, 10.00), 2.50
D 41.047523100 _3_ MAC  COL 7 vectorbasedforward 60 [0 ffffffff c 800] [energy 199888.268226 ei 7.201 es 0.000 et 102.755 er 1.776] ------- [60:60 7:0 0 0] 
r 41.096113247 _0_ MAC  --- 7 vectorbasedforward 60 [0 ffffffff c 800] [energy 199969.433309 ei 7.278 es 0.000 et 19.223 er 4.066] ------- [60:60 7:0 0 0] 
r 41.556321603 _12_ MAC  --- 0 RTS 44 [ec70 c 3 0] [energy 199964.813439 ei 7.398 es 0.000 et 24.023 er 3.766] 
s 41.566321603 _12_ MAC  --- 0 CTS 38 [f20 3 0 0] [energy 199964.813439 ei 7.398 es 0.000 et 24.023 er 3.766] 
s 41.786113247 _0_ MAC  --- 0 RTS 44 [ec70 c 0 0] [energy 199969.433309 ei 7.278 es 0.000 et 19.223 er 4.066] 
D 41.816077767 _6_ MAC  COL 0 CTS 38 [f20 6 0 0] [energy 199966.830735 ei 6.847 es 0.000 et 19.223 er 7.099] 
M 15.10000 12 (2000.00, 6000.00, 0.00), (2000.00, 10.00), 2.50
M 15.10000 13 (6000.00, 6000.00, 0.00), (6000.00, 10.00), 2.50
r 42.590665224 _3_ MAC  --- 0 CTS 38 [f20 3 0 0] [energy 199887.901883 ei 7.455 es 0.000 et 102.755 er 1.888] 
s 42.600665224 _3_ MAC  --- 5 vectorbasedforward 352 [dd50 c 3 800] [energy 199887.901883 ei 7.455 es 0.000 et 102.755 er 1.888] ------- [60:352 5:0 0 0] 
D 42.858206889 _12_ MAC  BSY 0 RTS 44 [ec70 c 0 0] [energy 199961.081587 ei 7.604 es 0.000 et 27.389 er 3.926] 
M 15.10000 12 (2000.00, 6000.00, 0.00), (2000.00, 10.00), 2.50
M 15.10000 13 (6000.00, 6000.00, 0.00), (6000.00, 10.00), 2.50
M 15.10000 12 (2000.00, 6000.00, 0.00), (2000.00, 10.00), 2.50
M 15.10000 13 (6000.00, 6000.00, 0.00), (6000.00, 10.00), 2.50
M 15.10000 12 (2000.00, 6000.00, 0.00), (2000.00, 10.00), 2.50
M 15.10000 13 (6000.00, 6000.00, 0.00), (6000.00, 10.00), 2.50
M 15.10000 12 (2000.00, 6000.00, 0.00), (2000.00, 10.00), 2.50
M 15.10000 13 (6000.00, 6000.00, 0.00), (6000.00, 10.00), 2.50
r 46.135833127 _12_ MAC  --- 5 vectorbasedforward 300 [dd50 c 3 800] [energy 199958.326708 ei 7.735 es 0.000 et 27.389 er 6.550] ------- [60:300 5:0 0 0] 
s 46.145833127 _12_ MAC  --- 0 ACK 38 [0 3 0 0] [energy 199958.326708 ei 7.735 es 0.000 et 27.389 er 6.550] 
M 15.10000 12 (2000.00, 6000.00, 0.00), (2000.00, 10.00), 2.50
M 15.10000 13 (6000.00, 6000.00, 0.00), (6000.00, 10.00), 2.50
r 47.164984603 _3_ MAC  --- 0 ACK 38 [0 3 0 0] [energy 199808.696344 ei 7.823 es 0.000 et 181.480 er 2.000] 
M 15.10000 12 (2000.00, 6000.00, 0.00), (2000.00, 10.00), 2.50
M 15.10000 13 (6000.00, 6000.00, 0.00), (6000.00, 10.00), 2.50
M 15.10000 12 (2000.00, 6000.00, 0.00), (2000.00, 10.00), 2.50
M 15.10000 13 (6000.00, 6000.00, 0.00), (6000.00, 10.00), 2.50
s 49.944846557 _6_ MAC  --- 0 RTS 44 [ec70 d 6 0] [energy 199963.326636 ei 7.727 es 0.000 et 19.223 er 9.723] 
M 15.10000 12 (2000.00, 6000.00, 0.00), (2000.00, 10.00), 2.50
M 15.10000 13 (6000.00, 6000.00, 0.00), (6000.00, 10.00), 2.50
M 15.10000 12 (2000.00, 6000.00, 0.00), (2000.00, 10.00), 2.50
M 15.10000 13 (6000.00, 6000.00, 0.00), (6000.00, 10.00), 2.50
r 51.007717112 _13_ MAC  --- 0 RTS 44 [ec70 d 6 0] [energy 199956.188573 ei 9.231 es 0.000 et 30.755 er 3.825] 
s 51.017717112 _13_ MAC  --- 0 CTS 38 [f20 6 0 0] [energy 199956.188573 ei 9.231 es 0.000 et 30.755 er 3.825] 
M 15.10000 12 (2000.00, 6000.00, 0.00), (2000.00, 10.00), 2.50
M 15.10000 13 (6000.00, 6000.00, 0.00), (6000.00, 10.00), 2.50
r 52.031383072 _6_ MAC  --- 0 CTS 38 [f20 6 0 0] [energy 199957.856884 ei 8.279 es 0.000 et 24.029 er 9.835] 
s 52.041383072 _6_ MAC  --- 2 vectorbasedforward 352 [dd50 d 6 800] [energy 199957.856884 ei 8.279 es 0.000 et 24.029 er 9.835] ------- [60:352 2:0 0 0] 
M 15.10000 12 (2000.00, 6000.00, 0.00), (2000.00, 10.00), 2.50
M 15.10000 13 (6000.00, 6000.00, 0.00), (6000.00, 10.00), 2.50
M 15.10000 12 (2000.00, 6000.00, 0.00), (2000.00, 10.00), 2.50
M 15.10000 13 (6000.00, 6000.00, 0.00), (6000.00, 10.00), 2.50
s 54.254984603 _0_ MAC  --- 0 RTS 44 [ec70 c 0 0] [energy 199959.799949 ei 9.257 es 0.000 et 24.029 er 6.914] 
M 15.10000 12 (2000.00, 6000.00, 0.00), (2000.00, 10.00), 2.50
M 15.10000 13 (6000.00, 6000.00, 0.00), (6000.00, 10.00), 2.50
r 55.313027626 _12_ MAC  --- 0 RTS 44 [ec70 c 0 0] [energy 199953.019794 ei 9.516 es 0.000 et 30.755 er 6.710] 
s 55.323027626 _12_ MAC  --- 0 CTS 38 [f20 0 0 0] [energy 199953.019794 ei 9.516 es 0.000 et 30.755 er 6.710] 
r 55.565901494 _13_ MAC  --- 2 vectorbasedforward 300 [dd50 d 6 800] [energy 199949.834261 ei 9.596 es 0.000 et 34.120 er 6.450] ------- [60:300 2:0 0 0] 
s 55.575901494 _13_ MAC  --- 0 ACK 38 [0 6 0 0] [energy 199949.834261 ei 9.596 es 0.000 et 34.120 er 6.450] 
M 15.10000 12 (2000.00, 6000.00, 0.00), (2000.00, 10.00), 2.50
M 15.10000 13 (6000.00, 6000.00, 0.00), (6000.00, 10.00), 2.50
s 56.038093494 _13_ MAC  --- 8 vectorbasedforward 60 [0 ffffffff d 800] [energy 199946.404120 ei 9.660 es 0.000 et 37.486 er 6.450] ------- [60:60 8:0 0 0] 
r 56.331879276 _0_ MAC  --- 0 CTS 38 [f20 0 0 0] [energy 199954.470098 ei 9.669 es 0.000 et 28.835 er 7.026] 
s 56.341879276 _0_ MAC  --- 4 vectorbasedforward 352 [dd50 c 0 800] [energy 199954.470098 ei 9.669 es 0.000 et 28.835 er 7.026] ------- [60:352 4:0 0 0] 
r 56.584471355 _6_ MAC  --- 0 ACK 38 [0 6 0 0] [energy 199878.655591 ei 8.642 es 0.000 et 102.755 er 9.947] 
M 15.10000 12 (2000.00, 6000.00, 0.00), (2000.00, 10.00), 2.50
M 15.10000 13 (6000.00, 6000.00, 0.00), (6000.00, 10.00), 2.50
r 57.222148598 _6_ MAC  --- 8 vectorbasedforward 60 [0 ffffffff d 800] [energy 199878.297502 ei 8.712 es 0.000 et 102.755 er 10.236] ------- [60:60 8:0 0 0] 
r 57.222148598 _9_ MAC  --- 8 vectorbasedforward 60 [0 ffffffff d 800] [energy 199892.063180 ei 9.831 es 0.000 et 93.143 er 4.963] ------- [60:60 8:0 0 0] 
M 15.10000 12 (2000.00, 6000.00, 0.00), (2000.00, 10.00), 2.50
M 15.10000 13 (6000.00, 6000.00, 0.00), (6000.00, 10.00), 2.50
M 15.10000 12 (2000.00, 6000.00, 0.00), (2000.00, 10.00), 2.50
M 15.10000 13 (6000.00, 6000.00, 0.00), (6000.00, 10.00), 2.50
r 59.861596245 _12_ MAC  --- 4 vectorbasedforward 300 [dd50 c 0 800] [energy 199946.667405 ei 9.878 es 0.000 et 34.120 er 9.334] ------- [60:300 4:0 0 0] 
s 59.871596245 _12_ MAC  --- 0 ACK 38 [0 0 0 0] [energy 199946.667405 ei 9.878 es 0.000 et 34.120 er 9.334] 
M 15.10000 12 (2000.00, 6000.00, 0.00), (2000.00, 10.00), 2.50
M 15.10000 13 (6000.00, 6000.00, 0.00), (6000.00, 10.00), 2.50
s 60.153788245 _12_ MAC  --- 9 vectorbasedforward 60 [0 ffffffff c 800] [energy 199943.296403 ei 9.883 es 0.000 et 37.486 er 9.334] ------- [60:60 9:0 0 0] 
r 60.875396060 _0_ MAC  --- 0 ACK 38 [0 0 0 0] [energy 199875.270719 ei 10.030 es 0.000 et 107.560 er 7.139] 
M 15.10000 12 (2000.00, 6000.00, 0.00), (2000.00, 10.00), 2.50
M 15.10000 13 (6000.00, 6000.00, 0.00), (6000.00, 10.00), 2.50
r 61.333275827 _0_ MAC  --- 9 vectorbasedforward 60 [0 ffffffff c 800] [energy 199874.948590 ei 10.064 es 0.000 et 107.560 er 7.427] ------- [60:60 9:0 0 0] 
r 61.333275827 _3_ MAC  --- 9 vectorbasedforward 60 [0 ffffffff c 800] [energy 199801.125764 ei 9.473 es 0.000 et 181.480 er 7.921] ------- [60:60 9:0 0 0] 
M 15.10000 12 (2000.00, 6000.00, 0.00), (2000.00, 10.00), 2.50
M 15.10000 13 (6000.00, 6000.00, 0.00), (6000.00, 10.00), 2.50
M 15.10000 12 (2000.00, 6000.00, 0.00), (2000.00, 10.00), 2.50
M 15.10000 13 (6000.00, 6000.00, 0.00), (6000.00, 10.00), 2.50
M 15.10000 12 (2000.00, 6000.00, 0.00), (2000.00, 10.00), 2.50
M 15.10000 13 (6000.00, 6000.00, 0.00), (6000.00, 10.00), 2.50
M 15.10000 12 (2000.00, 6000.00, 0.00), (2000.00, 10.00), 2.50
M 15.10000 13 (6000.00, 6000.00, 0.00), (6000.00, 10.00), 2.50
M 15.10000 12 (2000.00, 6000.00, 0.00), (2000.00, 10.00), 2.50
M 15.10000 13 (6000.00, 6000.00, 0.00), (6000.00, 10.00), 2.50
M 15.10000 12 (2000.00, 6000.00, 0.00), (2000.00, 10.00), 2.50
M 15.10000 13 (6000.00, 6000.00, 0.00), (6000.00, 10.00), 2.50
M 15.10000 12 (2000.00, 6000.00, 0.00), (2000.00, 10.00), 2.50
M 15.10000 13 (6000.00, 6000.00, 0.00), (6000.00, 10.00), 2.50
M 15.10000 12 (2000.00, 6000.00, 0.00), (2000.00, 10.00), 2.50
M 15.10000 13 (6000.00, 6000.00, 0.00), (6000.00, 10.00), 2.50
M 15.10000 12 (2000.00, 6000.00, 0.00), (2000.00, 10.00), 2.50
M 15.10000 13 (6000.00, 6000.00, 0.00), (6000.00, 10.00), 2.50
M 15.10000 12 (2000.00, 6000.00, 0.00), (2000.00, 10.00), 2.50
M 15.10000 13 (6000.00, 6000.00, 0.00), (6000.00, 10.00), 2.50
M 15.10000 12 (2000.00, 6000.00, 0.00), (2000.00, 10.00), 2.50
M 15.10000 13 (6000.00, 6000.00, 0.00), (6000.00, 10.00), 2.50
M 15.10000 12 (2000.00, 6000.00, 0.00), (2000.00, 10.00), 2.50
M 15.10000 13 (6000.00, 6000.00, 0.00), (6000.00, 10.00), 2.50
M 15.10000 12 (2000.00, 6000.00, 0.00), (2000.00, 10.00), 2.50
M 15.10000 13 (6000.00, 6000.00, 0.00), (6000.00, 10.00), 2.50
M 15.10000 12 (2000.00, 6000.00, 0.00), (2000.00, 10.00), 2.50
M 15.10000 13 (6000.00, 6000.00, 0.00), (6000.00, 10.00), 2.50
s 75.210025000 _13_ MAC  --- 10 vectorbasedforward 60 [0 ffffffff d 800] [energy 199934.015998 ei 13.403 es 0.000 et 46.132 er 6.450] ------- [60:60 10:0 0 0] 
s 75.310025000 _12_ MAC  --- 11 vectorbasedforward 60 [0 ffffffff c 800] [energy 199931.708281 ei 12.826 es 0.000 et 46.132 er 9.334] ------- [60:60 11:0 0 0] 
M 15.10000 12 (2000.00, 6000.00, 0.00), (2000.00, 10.00), 2.50
M 15.10000 13 (6000.00, 6000.00, 0.00), (6000.00, 10.00), 2.50
r 76.373058565 _6_ MAC  --- 10 vectorbasedforward 60 [0 ffffffff d 800] [energy 199874.236766 ei 12.485 es 0.000 et 102.755 er 10.524] ------- [60:60 10:0 0 0] 
r 76.373058565 _9_ MAC  --- 10 vectorbasedforward 60 [0 ffffffff d 800] [energy 199888.002444 ei 13.603 es 0.000 et 93.143 er 5.251] ------- [60:60 10:0 0 0] 
r 76.472950653 _0_ MAC  --- 11 vectorbasedforward 60 [0 ffffffff c 800] [energy 199871.690101 ei 13.035 es 0.000 et 107.560 er 7.715] ------- [60:60 11:0 0 0] 
r 76.472950653 _3_ MAC  --- 11 vectorbasedforward 60 [0 ffffffff c 800] [energy 199797.867275 ei 12.443 es 0.000 et 181.480 er 8.210] ------- [60:60 11:0 0 0] 
M 15.10000 12 (2000.00, 6000.00, 0.00), (2000.00, 10.00), 2.50
M 15.10000 13 (6000.00, 6000.00, 0.00), (6000.00, 10.00), 2.50
M 15.10000 12 (2000.00, 6000.00, 0.00), (2000.00, 10.00), 2.50
M 15.10000 13 (6000.00, 6000.00, 0.00), (6000.00, 10.00), 2.50
M 15.10000 12 (2000.00, 6000.00, 0.00), (2000.00, 10.00), 2.50
M 15.10000 13 (6000.00, 6000.00, 0.00), (6000.00, 10.00), 2.50
M 15.10000 12 (2000.00, 6000.00, 0.00), (2000.00, 10.00), 2.50
M 15.10000 13 (6000.00, 6000.00, 0.00), (6000.00, 10.00), 2.50
M 15.10000 12 (2000.00, 6000.00, 0.00), (2000.00, 10.00), 2.50
M 15.10000 13 (6000.00, 6000.00, 0.00), (6000.00, 10.00), 2.50
M 15.10000 12 (2000.00, 6000.00, 0.00), (2000.00, 10.00), 2.50
M 15.10000 13 (6000.00, 6000.00, 0.00), (6000.00, 10.00), 2.50
M 15.10000 12 (2000.00, 6000.00, 0.00), (2000.00, 10.00), 2.50
M 15.10000 13 (6000.00, 6000.00, 0.00), (6000.00, 10.00), 2.50
M 15.10000 12 (2000.00, 6000.00, 0.00), (2000.00, 10.00), 2.50
M 15.10000 13 (6000.00, 6000.00, 0.00), (6000.00, 10.00), 2.50
M 15.10000 12 (2000.00, 6000.00, 0.00), (2000.00, 10.00), 2.50
M 15.10000 13 (6000.00, 6000.00, 0.00), (6000.00, 10.00), 2.50
M 15.10000 12 (2000.00, 6000.00, 0.00), (2000.00, 10.00), 2.50
M 15.10000 13 (6000.00, 6000.00, 0.00), (6000.00, 10.00), 2.50
M 15.10000 12 (2000.00, 6000.00, 0.00), (2000.00, 10.00), 2.50
M 15.10000 13 (6000.00, 6000.00, 0.00), (6000.00, 10.00), 2.50
M 15.10000 12 (2000.00, 6000.00, 0.00), (2000.00, 10.00), 2.50
M 15.10000 13 (6000.00, 6000.00, 0.00), (6000.00, 10.00), 2.50
M 15.10000 12 (2000.00, 6000.00, 0.00), (2000.00, 10.00), 2.50
M 15.10000 13 (6000.00, 6000.00, 0.00), (6000.00, 10.00), 2.50
M 15.10000 12 (2000.00, 6000.00, 0.00), (2000.00, 10.00), 2.50
M 15.10000 13 (6000.00, 6000.00, 0.00), (6000.00, 10.00), 2.50
M 15.10000 12 (2000.00, 6000.00, 0.00), (2000.00, 10.00), 2.50
M 15.10000 13 (6000.00, 6000.00, 0.00), (6000.00, 10.00), 2.50
M 15.10000 12 (2000.00, 6000.00, 0.00), (2000.00, 10.00), 2.50
M 15.10000 13 (6000.00, 6000.00, 0.00), (6000.00, 10.00), 2.50
M 15.10000 12 (2000.00, 6000.00, 0.00), (2000.00, 10.00), 2.50
M 15.10000 13 (6000.00, 6000.00, 0.00), (6000.00, 10.00), 2.50
M 15.10000 12 (2000.00, 6000.00, 0.00), (2000.00, 10.00), 2.50
M 15.10000 13 (6000.00, 6000.00, 0.00), (6000.00, 10.00), 2.50
M 15.10000 12 (2000.00, 6000.00, 0.00), (2000.00, 10.00), 2.50
M 15.10000 13 (6000.00, 6000.00, 0.00), (6000.00, 10.00), 2.50
s 95.430025000 _12_ MAC  --- 13 vectorbasedforward 60 [0 ffffffff c 800] [energy 199919.120160 ei 16.768 es 0.000 et 54.778 er 9.334] ------- [60:60 13:0 0 0] 
s 95.630025000 _13_ MAC  --- 12 vectorbasedforward 60 [0 ffffffff d 800] [energy 199921.427877 ei 17.345 es 0.000 et 54.778 er 6.450] ------- [60:60 12:0 0 0] 
M 15.10000 12 (2000.00, 6000.00, 0.00), (2000.00, 10.00), 2.50
M 15.10000 13 (6000.00, 6000.00, 0.00), (6000.00, 10.00), 2.50
r 96.571623398 _0_ MAC  --- 13 vectorbasedforward 60 [0 ffffffff c 800] [energy 199867.439813 ei 16.997 es 0.000 et 107.560 er 8.003] ------- [60:60 13:0 0 0] 
r 96.571623398 _3_ MAC  --- 13 vectorbasedforward 60 [0 ffffffff c 800] [energy 199793.616987 ei 16.405 es 0.000 et 181.480 er 8.498] ------- [60:60 13:0 0 0] 
r 96.771415337 _6_ MAC  --- 12 vectorbasedforward 60 [0 ffffffff d 800] [energy 199869.926541 ei 16.507 es 0.000 et 102.755 er 10.812] ------- [60:60 12:0 0 0] 
r 96.771415337 _9_ MAC  --- 12 vectorbasedforward 60 [0 ffffffff d 800] [energy 199883.692219 ei 17.625 es 0.000 et 93.143 er 5.539] ------- [60:60 12:0 0 0] 
M 15.10000 12 (2000.00, 6000.00, 0.00), (2000.00, 10.00), 2.50
M 15.10000 13 (6000.00, 6000.00, 0.00), (6000.00, 10.00), 2.50
r 97.699841511 _4_ MAC  --- 13 vectorbasedforward 60 [0 ffffffff c 800] [energy 199970.108126 ei 16.952 es 0.000 et 0.000 er 12.940] ------- [60:60 13:0 0 0] 
r 97.899527611 _10_ MAC  --- 12 vectorbasedforward 60 [0 ffffffff d 800] [energy 199974.965605 ei 18.216 es 0.000 et 0.000 er 6.818] ------- [60:60 12:0 0 0] 
M 15.10000 12 (2000.00, 6000.00, 0.00), (2000.00, 10.00), 2.50
M 15.10000 13 (6000.00, 6000.00, 0.00), (6000.00, 10.00), 2.50
s 98.229891511 _4_ MAC  --- 0 RTS 44 [ec70 c 4 0] [energy 199970.048094 ei 17.012 es 0.000 et 0.000 er 12.940] 
s 98.549577611 _10_ MAC  --- 0 RTS 44 [ec70 d a 0] [energy 199974.945510 ei 18.236 es 0.000 et 0.000 er 6.818] 
M 15.10000 12 (2000.00, 6000.00, 0.00), (2000.00, 10.00), 2.50
M 15.10000 13 (6000.00, 6000.00, 0.00), (6000.00, 10.00), 2.50
M 15.10000 12 (2000.00, 6000.00, 0.00), (2000.00, 10.00), 2.50
M 15.10000 13 (6000.00, 6000.00, 0.00), (6000.00, 10.00), 2.50
r 100.367314206 _12_ MAC  --- 0 RTS 44 [ec70 c 4 0] [energy 199909.330422 ei 17.752 es 0.000 et 63.423 er 9.494] 
s 100.377314206 _12_ MAC  --- 0 CTS 38 [f20 4 0 0] [energy 199909.330422 ei 17.752 es 0.000 et 63.423 er 9.494] 
r 100.686498703 _13_ MAC  --- 0 RTS 44 [ec70 d a 0] [energy 199911.574302 ei 18.393 es 0.000 et 63.423 er 6.610] 
s 100.696498703 _13_ MAC  --- 0 CTS 38 [f20 a 0 0] [energy 199911.574302 ei 18.393 es 0.000 et 63.423 er 6.610] 
M 15.10000 12 (2000.00, 6000.00, 0.00), (2000.00, 10.00), 2.50
M 15.10000 13 (6000.00, 6000.00, 0.00), (6000.00, 10.00), 2.50
M 15.10000 12 (2000.00, 6000.00, 0.00), (2000.00, 10.00), 2.50
M 15.10000 13 (6000.00, 6000.00, 0.00), (6000.00, 10.00), 2.50
r 102.463367809 _4_ MAC  --- 0 CTS 38 [f20 4 0 0] [energy 199964.291946 ei 17.850 es 0.000 et 4.806 er 13.052] 
s 102.473367809 _4_ MAC  --- 14 vectorbasedforward 352 [dd50 c 4 800] [energy 199964.291946 ei 17.850 es 0.000 et 4.806 er 13.052] ------- [60:352 14:0 0 0] 
r 102.782051601 _10_ MAC  --- 0 CTS 38 [f20 a 0 0] [energy 199969.125625 ei 19.138 es 0.000 et 4.806 er 6.930] 
s 102.792051601 _10_ MAC  --- 15 vectorbasedforward 352 [dd50 d a 800] [energy 199969.125625 ei 19.138 es 0.000 et 4.806 er 6.930] ------- [60:352 15:0 0 0] 
M 15.10000 12 (2000.00, 6000.00, 0.00), (2000.00, 10.00), 2.50
M 15.10000 13 (6000.00, 6000.00, 0.00), (6000.00, 10.00), 2.50
M 15.10000 12 (2000.00, 6000.00, 0.00), (2000.00, 10.00), 2.50
M 15.10000 13 (6000.00, 6000.00, 0.00), (6000.00, 10.00), 2.50
M 15.10000 12 (2000.00, 6000.00, 0.00), (2000.00, 10.00), 2.50
M 15.10000 13 (6000.00, 6000.00, 0.00), (6000.00, 10.00), 2.50
M 15.10000 12 (2000.00, 6000.00, 0.00), (2000.00, 10.00), 2.50
M 15.10000 13 (6000.00, 6000.00, 0.00), (6000.00, 10.00), 2.50
M 15.10000 12 (2000.00, 6000.00, 0.00), (2000.00, 10.00), 2.50
M 15.10000 13 (6000.00, 6000.00, 0.00), (6000.00, 10.00), 2.50
r 107.068133627 _12_ MAC  --- 14 vectorbasedforward 300 [dd50 c 4 800] [energy 199902.547582 ei 18.545 es 0.000 et 66.789 er 12.119] ------- [60:300 14:0 0 0] 
s 107.078133627 _12_ MAC  --- 0 ACK 38 [0 4 0 0] [energy 199902.547582 ei 18.545 es 0.000 et 66.789 er 12.119] 
r 107.386317607 _13_ MAC  --- 15 vectorbasedforward 300 [dd50 d a 800] [energy 199904.791663 ei 19.185 es 0.000 et 66.789 er 9.234] ------- [60:300 15:0 0 0] 
s 107.396317607 _13_ MAC  --- 0 ACK 38 [0 a 0 0] [energy 199904.791663 ei 19.185 es 0.000 et 66.789 er 9.234] 
M 15.10000 12 (2000.00, 6000.00, 0.00), (2000.00, 10.00), 2.50
M 15.10000 13 (6000.00, 6000.00, 0.00), (6000.00, 10.00), 2.50
M 15.10000 12 (2000.00, 6000.00, 0.00), (2000.00, 10.00), 2.50
M 15.10000 13 (6000.00, 6000.00, 0.00), (6000.00, 10.00), 2.50
r 109.153679091 _4_ MAC  --- 0 ACK 38 [0 4 0 0] [energy 199884.663208 ei 18.641 es 0.000 et 83.532 er 13.164] 
r 109.471364280 _10_ MAC  --- 0 ACK 38 [0 a 0 0] [energy 199889.497087 ei 19.929 es 0.000 et 83.532 er 7.042] 
M 15.10000 12 (2000.00, 6000.00, 0.00), (2000.00, 10.00), 2.50
M 15.10000 13 (6000.00, 6000.00, 0.00), (6000.00, 10.00), 2.50
M 15.10000 12 (2000.00, 6000.00, 0.00), (2000.00, 10.00), 2.50
M 15.10000 13 (6000.00, 6000.00, 0.00), (6000.00, 10.00), 2.50
M 15.10000 12 (2000.00, 6000.00, 0.00), (2000.00, 10.00), 2.50
M 15.10000 13 (6000.00, 6000.00, 0.00), (6000.00, 10.00), 2.50
M 15.10000 12 (2000.00, 6000.00, 0.00), (2000.00, 10.00), 2.50
M 15.10000 13 (6000.00, 6000.00, 0.00), (6000.00, 10.00), 2.50
M 15.10000 12 (2000.00, 6000.00, 0.00), (2000.00, 10.00), 2.50
M 15.10000 13 (6000.00, 6000.00, 0.00), (6000.00, 10.00), 2.50
M 15.10000 12 (2000.00, 6000.00, 0.00), (2000.00, 10.00), 2.50
M 15.10000 13 (6000.00, 6000.00, 0.00), (6000.00, 10.00), 2.50
s 115.130025000 _13_ MAC  --- 16 vectorbasedforward 60 [0 ffffffff d 800] [energy 199899.925605 ei 20.685 es 0.000 et 70.155 er 9.234] ------- [60:60 16:0 0 0] 
s 115.350025000 _12_ MAC  --- 17 vectorbasedforward 60 [0 ffffffff c 800] [energy 199897.617888 ei 20.109 es 0.000 et 70.155 er 12.119] ------- [60:60 17:0 0 0] 
M 15.10000 12 (2000.00, 6000.00, 0.00), (2000.00, 10.00), 2.50
M 15.10000 13 (6000.00, 6000.00, 0.00), (6000.00, 10.00), 2.50
r 116.251520309 _6_ MAC  --- 16 vectorbasedforward 60 [0 ffffffff d 800] [energy 199863.009852 ei 19.648 es 0.000 et 102.755 er 14.588] ------- [60:60 16:0 0 0] 
r 116.251520309 _9_ MAC  --- 16 vectorbasedforward 60 [0 ffffffff d 800] [energy 199877.158630 ei 20.862 es 0.000 et 93.143 er 8.836] ------- [60:60 16:0 0 0] 
r 116.471300375 _0_ MAC  --- 17 vectorbasedforward 60 [0 ffffffff c 800] [energy 199860.822310 ei 20.317 es 0.000 et 107.560 er 11.300] ------- [60:60 17:0 0 0] 
r 116.471300375 _3_ MAC  --- 17 vectorbasedforward 60 [0 ffffffff c 800] [energy 199786.999484 ei 19.725 es 0.000 et 181.480 er 11.795] ------- [60:60 17:0 0 0] 
s 116.850828557 _0_ MAC  --- 0 RTS 44 [ec70 c 0 0] [energy 199860.822310 ei 20.317 es 0.000 et 107.560 er 11.300] 
s 116.850969952 _9_ MAC  --- 0 RTS 44 [ec70 d 9 0] [energy 199877.158630 ei 20.862 es 0.000 et 93.143 er 8.836] 
s 116.950969952 _6_ MAC  --- 0 RTS 44 [ec70 d 6 0] [energy 199863.009852 ei 19.648 es 0.000 et 102.755 er 14.588] 
M 15.10000 12 (2000.00, 6000.00, 0.00), (2000.00, 10.00), 2.50
M 15.10000 13 (6000.00, 6000.00, 0.00), (6000.00, 10.00), 2.50
s 117.070828557 _3_ MAC  --- 0 RTS 44 [ec70 c 3 0] [energy 199786.893744 ei 19.831 es 0.000 et 181.480 er 11.795] 