n -t * -s 0  -x 1000 -y 5000 -Z 0 -z 1000  -v circle -c green
n -t * -s 1  -x 1000 -y 3000 -Z 0 -z 1000  -v circle -c green
n -t * -s 2  -x 1000 -y 1000 -Z 0 -z 1000  -v circle -c green
n -t * -s 3  -x 3000 -y 5000 -Z 0 -z 1000  -v circle -c green
n -t * -s 4  -x 3000 -y 3000 -Z 0 -z 1000  -v circle -c green
n -t * -s 5  -x 3000 -y 1000 -Z 0 -z 1000  -v circle -c green
n -t * -s 6  -x 5000 -y 5000 -Z 0 -z 1000  -v circle -c green
n -t * -s 7  -x 5000 -y 3000 -Z 0 -z 1000  -v circle -c green
n -t * -s 8  -x 5000 -y 1000 -Z 0 -z 1000  -v circle -c green
n -t * -s 9  -x 7000 -y 5000 -Z 0 -z 1000  -v circle -c green
n -t * -s 10  -x 7000 -y 3000 -Z 0 -z 1000  -v circle -c green
n -t * -s 11  -x 7000 -y 1000 -Z 0 -z 1000  -v circle -c green
n -t * -s 12  -x 2000 -y 6000 -Z 0 -z 1000  -v circle -c green
n -t * -s 13  -x 6000 -y 6000 -Z 0 -z 1000  -v circle -c green
V -t * -v 1.0a5 -a 0
W -t * -x 10000 -y 6000
A -t * -n 1 -p 0 -o 0xffffffff -c 31 -a 1
A -t * -h 1 -m 2147483647 -s 0
n -t 15.100000 -s 12 -x 2000.000000 -y 6000.000000 -U 0.000000 -V -2.500000 -T 2396.000000
n -t 15.100000 -s 13 -x 6000.000000 -y 6000.000000 -U 0.000000 -V -2.500000 -T 2396.000000
+ -t 15.190025000 -s 13 -d -1 -p vectorbasedforward -e 60 -c 2 -a 0 -i 0 -k MAC 
- -t 15.190025000 -s 13 -d -1 -p vectorbasedforward -e 60 -c 2 -a 0 -i 0 -k MAC
n -t 15.190025000 -s 13 -S COLOR -c red -o yellow
h -t 15.190025000 -s 13 -d -1 -p vectorbasedforward -e 60 -c 2 -a 0 -i 0 -k MAC -R 3000.000000
v -t 15.190025000 -e sim_annotation 15.190025000 1 node 13 sendout packet (vectorbasedforward) 0
+ -t 15.310025000 -s 12 -d -1 -p vectorbasedforward -e 60 -c 2 -a 0 -i 1 -k MAC 
- -t 15.310025000 -s 12 -d -1 -p vectorbasedforward -e 60 -c 2 -a 0 -i 1 -k MAC
n -t 15.310025000 -s 12 -S COLOR -c red -o yellow
h -t 15.310025000 -s 12 -d -1 -p vectorbasedforward -e 60 -c 2 -a 0 -i 1 -k MAC -R 3000.000000
v -t 15.310025000 -e sim_annotation 15.310025000 2 node 12 sendout packet (vectorbasedforward) 1
n -t 16.420919952 -s 6 -S COLOR -c red -o yellow
r -t 16.420919952 -s 6 -d -1 -p vectorbasedforward -e 60 -c 2 -a 0 -i 0 -k MAC -R 3000.000000
v -t 16.420919952 -e sim_annotation 16.420919952 3 node 6 receive packet(vectorbasedforward) 0
n -t 16.420919952 -s 9 -S COLOR -c red -o yellow
r -t 16.420919952 -s 9 -d -1 -p vectorbasedforward -e 60 -c 2 -a 0 -i 0 -k MAC -R 3000.000000
v -t 16.420919952 -e sim_annotation 16.420919952 4 node 9 receive packet(vectorbasedforward) 0
n -t 16.540778557 -s 0 -S COLOR -c red -o yellow
r -t 16.540778557 -s 0 -d -1 -p vectorbasedforward -e 60 -c 2 -a 0 -i 1 -k MAC -R 3000.000000
v -t 16.540778557 -e sim_annotation 16.540778557 5 node 0 receive packet(vectorbasedforward) 1
n -t 16.540778557 -s 3 -S COLOR -c red -o yellow
r -t 16.540778557 -s 3 -d -1 -p vectorbasedforward -e 60 -c 2 -a 0 -i 1 -k MAC -R 3000.000000
v -t 16.540778557 -e sim_annotation 16.540778557 6 node 3 receive packet(vectorbasedforward) 1
+ -t 16.550969952 -s 6 -d -1 -p RTS -e 44 -c 2 -a 0 -i 0 -k MAC 
- -t 16.550969952 -s 6 -d -1 -p RTS -e 44 -c 2 -a 0 -i 0 -k MAC
n -t 16.550969952 -s 6 -S COLOR -c red -o yellow
h -t 16.550969952 -s 6 -d -1 -p RTS -e 44 -c 2 -a 0 -i 0 -k MAC -R 3000.000000
v -t 16.550969952 -e sim_annotation 16.550969952 7 node 6 sendout packet (RTS) 0
+ -t 16.630969952 -s 9 -d -1 -p RTS -e 44 -c 2 -a 0 -i 0 -k MAC 
- -t 16.630969952 -s 9 -d -1 -p RTS -e 44 -c 2 -a 0 -i 0 -k MAC
n -t 16.630969952 -s 9 -S COLOR -c red -o yellow
h -t 16.630969952 -s 9 -d -1 -p RTS -e 44 -c 2 -a 0 -i 0 -k MAC -R 3000.000000
v -t 16.630969952 -e sim_annotation 16.630969952 8 node 9 sendout packet (RTS) 0
+ -t 17.030828557 -s 3 -d -1 -p RTS -e 44 -c 2 -a 0 -i 0 -k MAC 
- -t 17.030828557 -s 3 -d -1 -p RTS -e 44 -c 2 -a 0 -i 0 -k MAC
n -t 17.030828557 -s 3 -S COLOR -c red -o yellow
h -t 17.030828557 -s 3 -d -1 -p RTS -e 44 -c 2 -a 0 -i 0 -k MAC -R 3000.000000
v -t 17.030828557 -e sim_annotation 17.030828557 9 node 3 sendout packet (RTS) 0
+ -t 17.050828557 -s 0 -d -1 -p RTS -e 44 -c 2 -a 0 -i 0 -k MAC 
- -t 17.050828557 -s 0 -d -1 -p RTS -e 44 -c 2 -a 0 -i 0 -k MAC
n -t 17.050828557 -s 0 -S COLOR -c red -o yellow
h -t 17.050828557 -s 0 -d -1 -p RTS -e 44 -c 2 -a 0 -i 0 -k MAC -R 3000.000000
v -t 17.050828557 -e sim_annotation 17.050828557 10 node 0 sendout packet (RTS) 0
n -t 17.571976458 -s 13 -S COLOR -c red -o yellow
d -t 17.571976458 -s 13 -d -1 -p RTS -e 44 -c 2 -a 0 -i 0 -k MAC
v -t 17.571976458 -e sim_annotation 17.571976458 11 node 13 drop packet(RTS) 0
d -t 17.732168458 -s 13 -d -1 -p RTS -e 44 -c 2 -a 0 -i 0 -k MAC
v -t 17.732168458 -e sim_annotation 17.732168458 12 node 13 drop packet(RTS) 0
n -t 17.991341335 -s 12 -S COLOR -c red -o yellow
d -t 17.991341335 -s 12 -d -1 -p RTS -e 44 -c 2 -a 0 -i 0 -k MAC
v -t 17.991341335 -e sim_annotation 17.991341335 13 node 12 drop packet(RTS) 0
d -t 18.151533335 -s 12 -d -1 -p RTS -e 44 -c 2 -a 0 -i 0 -k MAC
v -t 18.151533335 -e sim_annotation 18.151533335 14 node 12 drop packet(RTS) 0
+ -t 20.983353952 -s 6 -d -1 -p RTS -e 44 -c 2 -a 0 -i 0 -k MAC 
- -t 20.983353952 -s 6 -d -1 -p RTS -e 44 -c 2 -a 0 -i 0 -k MAC
h -t 20.983353952 -s 6 -d -1 -p RTS -e 44 -c 2 -a 0 -i 0 -k MAC -R 3000.000000
v -t 20.983353952 -e sim_annotation 20.983353952 15 node 6 sendout packet (RTS) 0
+ -t 21.803212557 -s 3 -d -1 -p RTS -e 44 -c 2 -a 0 -i 0 -k MAC 
- -t 21.803212557 -s 3 -d -1 -p RTS -e 44 -c 2 -a 0 -i 0 -k MAC
h -t 21.803212557 -s 3 -d -1 -p RTS -e 44 -c 2 -a 0 -i 0 -k MAC -R 3000.000000
v -t 21.803212557 -e sim_annotation 21.803212557 16 node 3 sendout packet (RTS) 0
+ -t 21.983353952 -s 9 -d -1 -p RTS -e 44 -c 2 -a 0 -i 0 -k MAC 
- -t 21.983353952 -s 9 -d -1 -p RTS -e 44 -c 2 -a 0 -i 0 -k MAC
h -t 21.983353952 -s 9 -d -1 -p RTS -e 44 -c 2 -a 0 -i 0 -k MAC -R 3000.000000
v -t 21.983353952 -e sim_annotation 21.983353952 17 node 9 sendout packet (RTS) 0
n -t 22.079447079 -s 13 -S COLOR -c red -o yellow
r -t 22.079447079 -s 13 -d -1 -p RTS -e 44 -c 2 -a 0 -i 0 -k MAC -R 3000.000000
v -t 22.079447079 -e sim_annotation 22.079447079 18 node 13 receive packet(RTS) 0
+ -t 22.089447079 -s 13 -d -1 -p CTS -e 38 -c 2 -a 0 -i 0 -k MAC 
- -t 22.089447079 -s 13 -d -1 -p CTS -e 38 -c 2 -a 0 -i 0 -k MAC
h -t 22.089447079 -s 13 -d -1 -p CTS -e 38 -c 2 -a 0 -i 0 -k MAC -R 3000.000000
v -t 22.089447079 -e sim_annotation 22.089447079 19 node 13 sendout packet (CTS) 0
+ -t 22.523212557 -s 0 -d -1 -p RTS -e 44 -c 2 -a 0 -i 0 -k MAC 
- -t 22.523212557 -s 0 -d -1 -p RTS -e 44 -c 2 -a 0 -i 0 -k MAC
h -t 22.523212557 -s 0 -d -1 -p RTS -e 44 -c 2 -a 0 -i 0 -k MAC -R 3000.000000
v -t 22.523212557 -e sim_annotation 22.523212557 20 node 0 sendout packet (RTS) 0
n -t 22.898347162 -s 12 -S COLOR -c red -o yellow
r -t 22.898347162 -s 12 -d -1 -p RTS -e 44 -c 2 -a 0 -i 0 -k MAC -R 3000.000000
v -t 22.898347162 -e sim_annotation 22.898347162 21 node 12 receive packet(RTS) 0
+ -t 22.908347162 -s 12 -d -1 -p CTS -e 38 -c 2 -a 0 -i 0 -k MAC 
- -t 22.908347162 -s 12 -d -1 -p CTS -e 38 -c 2 -a 0 -i 0 -k MAC
h -t 22.908347162 -s 12 -d -1 -p CTS -e 38 -c 2 -a 0 -i 0 -k MAC -R 3000.000000
v -t 22.908347162 -e sim_annotation 22.908347162 22 node 12 sendout packet (CTS) 0
d -t 23.078278085 -s 13 -d -1 -p RTS -e 44 -c 2 -a 0 -i 0 -k MAC
v -t 23.078278085 -e sim_annotation 23.078278085 23 node 13 drop packet(RTS) 0
n -t 23.136247277 -s 6 -S COLOR -c red -o yellow
r -t 23.136247277 -s 6 -d -1 -p CTS -e 38 -c 2 -a 0 -i 0 -k MAC -R 3000.000000
v -t 23.136247277 -e sim_annotation 23.136247277 24 node 6 receive packet(CTS) 0
d -t 23.617506226 -s 12 -d -1 -p RTS -e 44 -c 2 -a 0 -i 0 -k MAC
v -t 23.617506226 -e sim_annotation 23.617506226 25 node 12 drop packet(RTS) 0
n -t 23.856545891 -s 3 -S COLOR -c red -o yellow
d -t 23.856545891 -s 3 -d -1 -p CTS -e 38 -c 2 -a 0 -i 0 -k MAC
v -t 23.856545891 -e sim_annotation 23.856545891 26 node 3 drop packet(CTS) 0
+ -t 24.427407285 -s 6 -d -1 -p RTS -e 44 -c 2 -a 0 -i 0 -k MAC 
- -t 24.427407285 -s 6 -d -1 -p RTS -e 44 -c 2 -a 0 -i 0 -k MAC
h -t 24.427407285 -s 6 -d -1 -p RTS -e 44 -c 2 -a 0 -i 0 -k MAC -R 3000.000000
v -t 24.427407285 -e sim_annotation 24.427407285 27 node 6 sendout packet (RTS) 0
d -t 25.519480708 -s 13 -d -1 -p RTS -e 44 -c 2 -a 0 -i 0 -k MAC
v -t 25.519480708 -e sim_annotation 25.519480708 28 node 13 drop packet(RTS) 0
+ -t 26.655596557 -s 3 -d -1 -p RTS -e 44 -c 2 -a 0 -i 0 -k MAC 
- -t 26.655596557 -s 3 -d -1 -p RTS -e 44 -c 2 -a 0 -i 0 -k MAC
h -t 26.655596557 -s 3 -d -1 -p RTS -e 44 -c 2 -a 0 -i 0 -k MAC -R 3000.000000
v -t 26.655596557 -e sim_annotation 26.655596557 29 node 3 sendout packet (RTS) 0
+ -t 27.195596557 -s 0 -d -1 -p RTS -e 44 -c 2 -a 0 -i 0 -k MAC 
- -t 27.195596557 -s 0 -d -1 -p RTS -e 44 -c 2 -a 0 -i 0 -k MAC
h -t 27.195596557 -s 0 -d -1 -p RTS -e 44 -c 2 -a 0 -i 0 -k MAC -R 3000.000000
v -t 27.195596557 -e sim_annotation 27.195596557 30 node 0 sendout packet (RTS) 0
d -t 27.745078989 -s 12 -d -1 -p RTS -e 44 -c 2 -a 0 -i 0 -k MAC
v -t 27.745078989 -e sim_annotation 27.745078989 31 node 12 drop packet(RTS) 0
+ -t 28.015737952 -s 9 -d -1 -p RTS -e 44 -c 2 -a 0 -i 0 -k MAC 
- -t 28.015737952 -s 9 -d -1 -p RTS -e 44 -c 2 -a 0 -i 0 -k MAC
h -t 28.015737952 -s 9 -d -1 -p RTS -e 44 -c 2 -a 0 -i 0 -k MAC -R 3000.000000
v -t 28.015737952 -e sim_annotation 28.015737952 32 node 9 sendout packet (RTS) 0
d -t 28.284452212 -s 12 -d -1 -p RTS -e 44 -c 2 -a 0 -i 0 -k MAC
v -t 28.284452212 -e sim_annotation 28.284452212 33 node 12 drop packet(RTS) 0
r -t 29.103642530 -s 13 -d -1 -p RTS -e 44 -c 2 -a 0 -i 0 -k MAC -R 3000.000000
v -t 29.103642530 -e sim_annotation 29.103642530 34 node 13 receive packet(RTS) 0
+ -t 29.113642530 -s 13 -d -1 -p CTS -e 38 -c 2 -a 0 -i 0 -k MAC 
- -t 29.113642530 -s 13 -d -1 -p CTS -e 38 -c 2 -a 0 -i 0 -k MAC
h -t 29.113642530 -s 13 -d -1 -p CTS -e 38 -c 2 -a 0 -i 0 -k MAC -R 3000.000000
v -t 29.113642530 -e sim_annotation 29.113642530 35 node 13 sendout packet (CTS) 0
n -t 30.152275552 -s 9 -S COLOR -c red -o yellow
r -t 30.152275552 -s 9 -d -1 -p CTS -e 38 -c 2 -a 0 -i 0 -k MAC -R 3000.000000
v -t 30.152275552 -e sim_annotation 30.152275552 36 node 9 receive packet(CTS) 0
+ -t 30.162275552 -s 9 -d -1 -p vectorbasedforward -e 352 -c 2 -a 0 -i 3 -k MAC 
- -t 30.162275552 -s 9 -d -1 -p vectorbasedforward -e 352 -c 2 -a 0 -i 3 -k MAC
h -t 30.162275552 -s 9 -d -1 -p vectorbasedforward -e 352 -c 2 -a 0 -i 3 -k MAC -R 3000.000000
v -t 30.162275552 -e sim_annotation 30.162275552 37 node 9 sendout packet (vectorbasedforward) 3
+ -t 31.547980557 -s 3 -d -1 -p RTS -e 44 -c 2 -a 0 -i 0 -k MAC 
- -t 31.547980557 -s 3 -d -1 -p RTS -e 44 -c 2 -a 0 -i 0 -k MAC
h -t 31.547980557 -s 3 -d -1 -p RTS -e 44 -c 2 -a 0 -i 0 -k MAC -R 3000.000000
v -t 31.547980557 -e sim_annotation 31.547980557 38 node 3 sendout packet (RTS) 0
r -t 32.631800897 -s 12 -d -1 -p RTS -e 44 -c 2 -a 0 -i 0 -k MAC -R 3000.000000
v -t 32.631800897 -e sim_annotation 32.631800897 39 node 12 receive packet(RTS) 0
+ -t 32.641800897 -s 12 -d -1 -p CTS -e 38 -c 2 -a 0 -i 0 -k MAC 
- -t 32.641800897 -s 12 -d -1 -p CTS -e 38 -c 2 -a 0 -i 0 -k MAC
h -t 32.641800897 -s 12 -d -1 -p CTS -e 38 -c 2 -a 0 -i 0 -k MAC -R 3000.000000
v -t 32.641800897 -e sim_annotation 32.641800897 40 node 12 sendout packet (CTS) 0
n -t 33.676360434 -s 3 -S COLOR -c red -o yellow
r -t 33.676360434 -s 3 -d -1 -p CTS -e 38 -c 2 -a 0 -i 0 -k MAC -R 3000.000000
v -t 33.676360434 -e sim_annotation 33.676360434 41 node 3 receive packet(CTS) 0
+ -t 33.686360434 -s 3 -d -1 -p vectorbasedforward -e 352 -c 2 -a 0 -i 5 -k MAC 
- -t 33.686360434 -s 3 -d -1 -p vectorbasedforward -e 352 -c 2 -a 0 -i 5 -k MAC
h -t 33.686360434 -s 3 -d -1 -p vectorbasedforward -e 352 -c 2 -a 0 -i 5 -k MAC -R 3000.000000
v -t 33.686360434 -e sim_annotation 33.686360434 42 node 3 sendout packet (vectorbasedforward) 5
n -t 33.711695830 -s 13 -S COLOR -c red -o yellow
r -t 33.711695830 -s 13 -d -1 -p vectorbasedforward -e 300 -c 2 -a 0 -i 3 -k MAC -R 3000.000000
v -t 33.711695830 -e sim_annotation 33.711695830 43 node 13 receive packet(vectorbasedforward) 3
+ -t 33.721695830 -s 13 -d -1 -p ACK -e 38 -c 2 -a 0 -i 0 -k MAC 
- -t 33.721695830 -s 13 -d -1 -p ACK -e 38 -c 2 -a 0 -i 0 -k MAC
h -t 33.721695830 -s 13 -d -1 -p ACK -e 38 -c 2 -a 0 -i 0 -k MAC -R 3000.000000
v -t 33.721695830 -e sim_annotation 33.721695830 44 node 13 sendout packet (ACK) 0
+ -t 34.370232434 -s 0 -d -1 -p RTS -e 44 -c 2 -a 0 -i 0 -k MAC 
- -t 34.370232434 -s 0 -d -1 -p RTS -e 44 -c 2 -a 0 -i 0 -k MAC
h -t 34.370232434 -s 0 -d -1 -p RTS -e 44 -c 2 -a 0 -i 0 -k MAC -R 3000.000000
v -t 34.370232434 -e sim_annotation 34.370232434 45 node 0 sendout packet (RTS) 0
r -t 34.755012461 -s 9 -d -1 -p ACK -e 38 -c 2 -a 0 -i 0 -k MAC -R 3000.000000
v -t 34.755012461 -e sim_annotation 34.755012461 46 node 9 receive packet(ACK) 0
d -t 35.290611516 -s 12 -d -1 -p RTS -e 44 -c 2 -a 0 -i 0 -k MAC
v -t 35.290611516 -e sim_annotation 35.290611516 47 node 12 drop packet(RTS) 0
+ -t 35.470025000 -s 13 -d -1 -p vectorbasedforward -e 60 -c 2 -a 0 -i 6 -k MAC 
- -t 35.470025000 -s 13 -d -1 -p vectorbasedforward -e 60 -c 2 -a 0 -i 6 -k MAC
h -t 35.470025000 -s 13 -d -1 -p vectorbasedforward -e 60 -c 2 -a 0 -i 6 -k MAC -R 3000.000000
v -t 35.470025000 -e sim_annotation 35.470025000 48 node 13 sendout packet (vectorbasedforward) 6
n -t 36.389141299 -s 6 -S COLOR -c red -o yellow
d -t 36.389141299 -s 6 -d -1 -p vectorbasedforward -e 60 -c 2 -a 0 -i 6 -k MAC
v -t 36.389141299 -e sim_annotation 36.389141299 49 node 6 drop packet(vectorbasedforward) 6
r -t 36.677333299 -s 9 -d -1 -p vectorbasedforward -e 60 -c 2 -a 0 -i 6 -k MAC -R 3000.000000
v -t 36.677333299 -e sim_annotation 36.677333299 50 node 9 receive packet(vectorbasedforward) 6
d -t 37.231717705 -s 12 -d -1 -p vectorbasedforward -e 352 -c 2 -a 0 -i 5 -k MAC
v -t 37.231717705 -e sim_annotation 37.231717705 51 node 12 drop packet(vectorbasedforward) 5
+ -t 39.714189767 -s 6 -d -1 -p RTS -e 44 -c 2 -a 0 -i 0 -k MAC 
- -t 39.714189767 -s 6 -d -1 -p RTS -e 44 -c 2 -a 0 -i 0 -k MAC
h -t 39.714189767 -s 6 -d -1 -p RTS -e 44 -c 2 -a 0 -i 0 -k MAC -R 3000.000000
v -t 39.714189767 -e sim_annotation 39.714189767 52 node 6 sendout packet (RTS) 0
+ -t 39.893864897 -s 12 -d -1 -p vectorbasedforward -e 60 -c 2 -a 0 -i 7 -k MAC 
- -t 39.893864897 -s 12 -d -1 -p vectorbasedforward -e 60 -c 2 -a 0 -i 7 -k MAC
h -t 39.893864897 -s 12 -d -1 -p vectorbasedforward -e 60 -c 2 -a 0 -i 7 -k MAC -R 3000.000000
v -t 39.893864897 -e sim_annotation 39.893864897 53 node 12 sendout packet (vectorbasedforward) 7
+ -t 40.482744434 -s 3 -d -1 -p RTS -e 44 -c 2 -a 0 -i 0 -k MAC 
- -t 40.482744434 -s 3 -d -1 -p RTS -e 44 -c 2 -a 0 -i 0 -k MAC
h -t 40.482744434 -s 3 -d -1 -p RTS -e 44 -c 2 -a 0 -i 0 -k MAC -R 3000.000000
v -t 40.482744434 -e sim_annotation 40.482744434 54 node 3 sendout packet (RTS) 0
r -t 40.788643015 -s 13 -d -1 -p RTS -e 44 -c 2 -a 0 -i 0 -k MAC -R 3000.000000
v -t 40.788643015 -e sim_annotation 40.788643015 55 node 13 receive packet(RTS) 0
+ -t 40.798643015 -s 13 -d -1 -p CTS -e 38 -c 2 -a 0 -i 0 -k MAC 
- -t 40.798643015 -s 13 -d -1 -p CTS -e 38 -c 2 -a 0 -i 0 -k MAC
h -t 40.798643015 -s 13 -d -1 -p CTS -e 38 -c 2 -a 0 -i 0 -k MAC -R 3000.000000
v -t 40.798643015 -e sim_annotation 40.798643015 56 node 13 sendout packet (CTS) 0
d -t 41.047523100 -s 3 -d -1 -p vectorbasedforward -e 60 -c 2 -a 0 -i 7 -k MAC
v -t 41.047523100 -e sim_annotation 41.047523100 57 node 3 drop packet(vectorbasedforward) 7
r -t 41.096113247 -s 0 -d -1 -p vectorbasedforward -e 60 -c 2 -a 0 -i 7 -k MAC -R 3000.000000
v -t 41.096113247 -e sim_annotation 41.096113247 58 node 0 receive packet(vectorbasedforward) 7
r -t 41.556321603 -s 12 -d -1 -p RTS -e 44 -c 2 -a 0 -i 0 -k MAC -R 3000.000000
v -t 41.556321603 -e sim_annotation 41.556321603 59 node 12 receive packet(RTS) 0
+ -t 41.566321603 -s 12 -d -1 -p CTS -e 38 -c 2 -a 0 -i 0 -k MAC 
- -t 41.566321603 -s 12 -d -1 -p CTS -e 38 -c 2 -a 0 -i 0 -k MAC
h -t 41.566321603 -s 12 -d -1 -p CTS -e 38 -c 2 -a 0 -i 0 -k MAC -R 3000.000000
v -t 41.566321603 -e sim_annotation 41.566321603 60 node 12 sendout packet (CTS) 0
+ -t 41.786113247 -s 0 -d -1 -p RTS -e 44 -c 2 -a 0 -i 0 -k MAC 
- -t 41.786113247 -s 0 -d -1 -p RTS -e 44 -c 2 -a 0 -i 0 -k MAC
h -t 41.786113247 -s 0 -d -1 -p RTS -e 44 -c 2 -a 0 -i 0 -k MAC -R 3000.000000
v -t 41.786113247 -e sim_annotation 41.786113247 61 node 0 sendout packet (RTS) 0
d -t 41.816077767 -s 6 -d -1 -p CTS -e 38 -c 2 -a 0 -i 0 -k MAC
v -t 41.816077767 -e sim_annotation 41.816077767 62 node 6 drop packet(CTS) 0
r -t 42.590665224 -s 3 -d -1 -p CTS -e 38 -c 2 -a 0 -i 0 -k MAC -R 3000.000000
v -t 42.590665224 -e sim_annotation 42.590665224 63 node 3 receive packet(CTS) 0
+ -t 42.600665224 -s 3 -d -1 -p vectorbasedforward -e 352 -c 2 -a 0 -i 5 -k MAC 
- -t 42.600665224 -s 3 -d -1 -p vectorbasedforward -e 352 -c 2 -a 0 -i 5 -k MAC
h -t 42.600665224 -s 3 -d -1 -p vectorbasedforward -e 352 -c 2 -a 0 -i 5 -k MAC -R 3000.000000
v -t 42.600665224 -e sim_annotation 42.600665224 64 node 3 sendout packet (vectorbasedforward) 5
d -t 42.858206889 -s 12 -d -1 -p RTS -e 44 -c 2 -a 0 -i 0 -k MAC
v -t 42.858206889 -e sim_annotation 42.858206889 65 node 12 drop packet(RTS) 0
n -t 46.135833127 -s 12 -S COLOR -c red -o yellow
r -t 46.135833127 -s 12 -d -1 -p vectorbasedforward -e 300 -c 2 -a 0 -i 5 -k MAC -R 3000.000000
v -t 46.135833127 -e sim_annotation 46.135833127 66 node 12 receive packet(vectorbasedforward) 5
+ -t 46.145833127 -s 12 -d -1 -p ACK -e 38 -c 2 -a 0 -i 0 -k MAC 
- -t 46.145833127 -s 12 -d -1 -p ACK -e 38 -c 2 -a 0 -i 0 -k MAC
h -t 46.145833127 -s 12 -d -1 -p ACK -e 38 -c 2 -a 0 -i 0 -k MAC -R 3000.000000
v -t 46.145833127 -e sim_annotation 46.145833127 67 node 12 sendout packet (ACK) 0
r -t 47.164984603 -s 3 -d -1 -p ACK -e 38 -c 2 -a 0 -i 0 -k MAC -R 3000.000000
v -t 47.164984603 -e sim_annotation 47.164984603 68 node 3 receive packet(ACK) 0
+ -t 49.944846557 -s 6 -d -1 -p RTS -e 44 -c 2 -a 0 -i 0 -k MAC 
- -t 49.944846557 -s 6 -d -1 -p RTS -e 44 -c 2 -a 0 -i 0 -k MAC
h -t 49.944846557 -s 6 -d -1 -p RTS -e 44 -c 2 -a 0 -i 0 -k MAC -R 3000.000000
v -t 49.944846557 -e sim_annotation 49.944846557 69 node 6 sendout packet (RTS) 0
r -t 51.007717112 -s 13 -d -1 -p RTS -e 44 -c 2 -a 0 -i 0 -k MAC -R 3000.000000
v -t 51.007717112 -e sim_annotation 51.007717112 70 node 13 receive packet(RTS) 0
+ -t 51.017717112 -s 13 -d -1 -p CTS -e 38 -c 2 -a 0 -i 0 -k MAC 
- -t 51.017717112 -s 13 -d -1 -p CTS -e 38 -c 2 -a 0 -i 0 -k MAC
h -t 51.017717112 -s 13 -d -1 -p CTS -e 38 -c 2 -a 0 -i 0 -k MAC -R 3000.000000
v -t 51.017717112 -e sim_annotation 51.017717112 71 node 13 sendout packet (CTS) 0
r -t 52.031383072 -s 6 -d -1 -p CTS -e 38 -c 2 -a 0 -i 0 -k MAC -R 3000.000000
v -t 52.031383072 -e sim_annotation 52.031383072 72 node 6 receive packet(CTS) 0
+ -t 52.041383072 -s 6 -d -1 -p vectorbasedforward -e 352 -c 2 -a 0 -i 2 -k MAC 
- -t 52.041383072 -s 6 -d -1 -p vectorbasedforward -e 352 -c 2 -a 0 -i 2 -k MAC
h -t 52.041383072 -s 6 -d -1 -p vectorbasedforward -e 352 -c 2 -a 0 -i 2 -k MAC -R 3000.000000
v -t 52.041383072 -e sim_annotation 52.041383072 73 node 6 sendout packet (vectorbasedforward) 2
+ -t 54.254984603 -s 0 -d -1 -p RTS -e 44 -c 2 -a 0 -i 0 -k MAC 
- -t 54.254984603 -s 0 -d -1 -p RTS -e 44 -c 2 -a 0 -i 0 -k MAC
h -t 54.254984603 -s 0 -d -1 -p RTS -e 44 -c 2 -a 0 -i 0 -k MAC -R 3000.000000
v -t 54.254984603 -e sim_annotation 54.254984603 74 node 0 sendout packet (RTS) 0
r -t 55.313027626 -s 12 -d -1 -p RTS -e 44 -c 2 -a 0 -i 0 -k MAC -R 3000.000000
v -t 55.313027626 -e sim_annotation 55.313027626 75 node 12 receive packet(RTS) 0
+ -t 55.323027626 -s 12 -d -1 -p CTS -e 38 -c 2 -a 0 -i 0 -k MAC 
- -t 55.323027626 -s 12 -d -1 -p CTS -e 38 -c 2 -a 0 -i 0 -k MAC
h -t 55.323027626 -s 12 -d -1 -p CTS -e 38 -c 2 -a 0 -i 0 -k MAC -R 3000.000000
v -t 55.323027626 -e sim_annotation 55.323027626 76 node 12 sendout packet (CTS) 0
r -t 55.565901494 -s 13 -d -1 -p vectorbasedforward -e 300 -c 2 -a 0 -i 2 -k MAC -R 3000.000000
v -t 55.565901494 -e sim_annotation 55.565901494 77 node 13 receive packet(vectorbasedforward) 2
+ -t 55.575901494 -s 13 -d -1 -p ACK -e 38 -c 2 -a 0 -i 0 -k MAC 
- -t 55.575901494 -s 13 -d -1 -p ACK -e 38 -c 2 -a 0 -i 0 -k MAC
h -t 55.575901494 -s 13 -d -1 -p ACK -e 38 -c 2 -a 0 -i 0 -k MAC -R 3000.000000
v -t 55.575901494 -e sim_annotation 55.575901494 78 node 13 sendout packet (ACK) 0
+ -t 56.038093494 -s 13 -d -1 -p vectorbasedforward -e 60 -c 2 -a 0 -i 8 -k MAC 
- -t 56.038093494 -s 13 -d -1 -p vectorbasedforward -e 60 -c 2 -a 0 -i 8 -k MAC
h -t 56.038093494 -s 13 -d -1 -p vectorbasedforward -e 60 -c 2 -a 0 -i 8 -k MAC -R 3000.000000
v -t 56.038093494 -e sim_annotation 56.038093494 79 node 13 sendout packet (vectorbasedforward) 8
n -t 56.331879276 -s 0 -S COLOR -c red -o yellow
r -t 56.331879276 -s 0 -d -1 -p CTS -e 38 -c 2 -a 0 -i 0 -k MAC -R 3000.000000
v -t 56.331879276 -e sim_annotation 56.331879276 80 node 0 receive packet(CTS) 0
+ -t 56.341879276 -s 0 -d -1 -p vectorbasedforward -e 352 -c 2 -a 0 -i 4 -k MAC 
- -t 56.341879276 -s 0 -d -1 -p vectorbasedforward -e 352 -c 2 -a 0 -i 4 -k MAC
h -t 56.341879276 -s 0 -d -1 -p vectorbasedforward -e 352 -c 2 -a 0 -i 4 -k MAC -R 3000.000000
v -t 56.341879276 -e sim_annotation 56.341879276 81 node 0 sendout packet (vectorbasedforward) 4
r -t 56.584471355 -s 6 -d -1 -p ACK -e 38 -c 2 -a 0 -i 0 -k MAC -R 3000.000000
v -t 56.584471355 -e sim_annotation 56.584471355 82 node 6 receive packet(ACK) 0
r -t 57.222148598 -s 6 -d -1 -p vectorbasedforward -e 60 -c 2 -a 0 -i 8 -k MAC -R 3000.000000
v -t 57.222148598 -e sim_annotation 57.222148598 83 node 6 receive packet(vectorbasedforward) 8
r -t 57.222148598 -s 9 -d -1 -p vectorbasedforward -e 60 -c 2 -a 0 -i 8 -k MAC -R 3000.000000
v -t 57.222148598 -e sim_annotation 57.222148598 84 node 9 receive packet(vectorbasedforward) 8
r -t 59.861596245 -s 12 -d -1 -p vectorbasedforward -e 300 -c 2 -a 0 -i 4 -k MAC -R 3000.000000
v -t 59.861596245 -e sim_annotation 59.861596245 85 node 12 receive packet(vectorbasedforward) 4
+ -t 59.871596245 -s 12 -d -1 -p ACK -e 38 -c 2 -a 0 -i 0 -k MAC 
- -t 59.871596245 -s 12 -d -1 -p ACK -e 38 -c 2 -a 0 -i 0 -k MAC
h -t 59.871596245 -s 12 -d -1 -p ACK -e 38 -c 2 -a 0 -i 0 -k MAC -R 3000.000000
v -t 59.871596245 -e sim_annotation 59.871596245 86 node 12 sendout packet (ACK) 0
+ -t 60.153788245 -s 12 -d -1 -p vectorbasedforward -e 60 -c 2 -a 0 -i 9 -k MAC 
- -t 60.153788245 -s 12 -d -1 -p vectorbasedforward -e 60 -c 2 -a 0 -i 9 -k MAC
h -t 60.153788245 -s 12 -d -1 -p vectorbasedforward -e 60 -c 2 -a 0 -i 9 -k MAC -R 3000.000000
v -t 60.153788245 -e sim_annotation 60.153788245 87 node 12 sendout packet (vectorbasedforward) 9
r -t 60.875396060 -s 0 -d -1 -p ACK -e 38 -c 2 -a 0 -i 0 -k MAC -R 3000.000000
v -t 60.875396060 -e sim_annotation 60.875396060 88 node 0 receive packet(ACK) 0
r -t 61.333275827 -s 0 -d -1 -p vectorbasedforward -e 60 -c 2 -a 0 -i 9 -k MAC -R 3000.000000
v -t 61.333275827 -e sim_annotation 61.333275827 89 node 0 receive packet(vectorbasedforward) 9
r -t 61.333275827 -s 3 -d -1 -p vectorbasedforward -e 60 -c 2 -a 0 -i 9 -k MAC -R 3000.000000
v -t 61.333275827 -e sim_annotation 61.333275827 90 node 3 receive packet(vectorbasedforward) 9
+ -t 75.210025000 -s 13 -d -1 -p vectorbasedforward -e 60 -c 2 -a 0 -i 10 -k MAC 
- -t 75.210025000 -s 13 -d -1 -p vectorbasedforward -e 60 -c 2 -a 0 -i 10 -k MAC
h -t 75.210025000 -s 13 -d -1 -p vectorbasedforward -e 60 -c 2 -a 0 -i 10 -k MAC -R 3000.000000
v -t 75.210025000 -e sim_annotation 75.210025000 91 node 13 sendout packet (vectorbasedforward) 10
+ -t 75.310025000 -s 12 -d -1 -p vectorbasedforward -e 60 -c 2 -a 0 -i 11 -k MAC 
- -t 75.310025000 -s 12 -d -1 -p vectorbasedforward -e 60 -c 2 -a 0 -i 11 -k MAC
h -t 75.310025000 -s 12 -d -1 -p vectorbasedforward -e 60 -c 2 -a 0 -i 11 -k MAC -R 3000.000000
v -t 75.310025000 -e sim_annotation 75.310025000 92 node 12 sendout packet (vectorbasedforward) 11
r -t 76.373058565 -s 6 -d -1 -p vectorbasedforward -e 60 -c 2 -a 0 -i 10 -k MAC -R 3000.000000
v -t 76.373058565 -e sim_annotation 76.373058565 93 node 6 receive packet(vectorbasedforward) 10
r -t 76.373058565 -s 9 -d -1 -p vectorbasedforward -e 60 -c 2 -a 0 -i 10 -k MAC -R 3000.000000
v -t 76.373058565 -e sim_annotation 76.373058565 94 node 9 receive packet(vectorbasedforward) 10
r -t 76.472950653 -s 0 -d -1 -p vectorbasedforward -e 60 -c 2 -a 0 -i 11 -k MAC -R 3000.000000
v -t 76.472950653 -e sim_annotation 76.472950653 95 node 0 receive packet(vectorbasedforward) 11
r -t 76.472950653 -s 3 -d -1 -p vectorbasedforward -e 60 -c 2 -a 0 -i 11 -k MAC -R 3000.000000
v -t 76.472950653 -e sim_annotation 76.472950653 96 node 3 receive packet(vectorbasedforward) 11
+ -t 95.430025000 -s 12 -d -1 -p vectorbasedforward -e 60 -c 2 -a 0 -i 13 -k MAC 
- -t 95.430025000 -s 12 -d -1 -p vectorbasedforward -e 60 -c 2 -a 0 -i 13 -k MAC
h -t 95.430025000 -s 12 -d -1 -p vectorbasedforward -e 60 -c 2 -a 0 -i 13 -k MAC -R 3000.000000
v -t 95.430025000 -e sim_annotation 95.430025000 97 node 12 sendout packet (vectorbasedforward) 13
+ -t 95.630025000 -s 13 -d -1 -p vectorbasedforward -e 60 -c 2 -a 0 -i 12 -k MAC 
- -t 95.630025000 -s 13 -d -1 -p vectorbasedforward -e 60 -c 2 -a 0 -i 12 -k MAC
h -t 95.630025000 -s 13 -d -1 -p vectorbasedforward -e 60 -c 2 -a 0 -i 12 -k MAC -R 3000.000000
v -t 95.630025000 -e sim_annotation 95.630025000 98 node 13 sendout packet (vectorbasedforward) 12
r -t 96.571623398 -s 0 -d -1 -p vectorbasedforward -e 60 -c 2 -a 0 -i 13 -k MAC -R 3000.000000
v -t 96.571623398 -e sim_annotation 96.571623398 99 node 0 receive packet(vectorbasedforward) 13
r -t 96.571623398 -s 3 -d -1 -p vectorbasedforward -e 60 -c 2 -a 0 -i 13 -k MAC -R 3000.000000
v -t 96.571623398 -e sim_annotation 96.571623398 100 node 3 receive packet(vectorbasedforward) 13
r -t 96.771415337 -s 6 -d -1 -p vectorbasedforward -e 60 -c 2 -a 0 -i 12 -k MAC -R 3000.000000
v -t 96.771415337 -e sim_annotation 96.771415337 101 node 6 receive packet(vectorbasedforward) 12
r -t 96.771415337 -s 9 -d -1 -p vectorbasedforward -e 60 -c 2 -a 0 -i 12 -k MAC -R 3000.000000
v -t 96.771415337 -e sim_annotation 96.771415337 102 node 9 receive packet(vectorbasedforward) 12
n -t 97.699841511 -s 4 -S COLOR -c red -o yellow
r -t 97.699841511 -s 4 -d -1 -p vectorbasedforward -e 60 -c 2 -a 0 -i 13 -k MAC -R 3000.000000
v -t 97.699841511 -e sim_annotation 97.699841511 103 node 4 receive packet(vectorbasedforward) 13
n -t 97.899527611 -s 10 -S COLOR -c red -o yellow
r -t 97.899527611 -s 10 -d -1 -p vectorbasedforward -e 60 -c 2 -a 0 -i 12 -k MAC -R 3000.000000
v -t 97.899527611 -e sim_annotation 97.899527611 104 node 10 receive packet(vectorbasedforward) 12
+ -t 98.229891511 -s 4 -d -1 -p RTS -e 44 -c 2 -a 0 -i 0 -k MAC 
- -t 98.229891511 -s 4 -d -1 -p RTS -e 44 -c 2 -a 0 -i 0 -k MAC
n -t 98.229891511 -s 4 -S COLOR -c red -o yellow
h -t 98.229891511 -s 4 -d -1 -p RTS -e 44 -c 2 -a 0 -i 0 -k MAC -R 3000.000000
v -t 98.229891511 -e sim_annotation 98.229891511 105 node 4 sendout packet (RTS) 0
+ -t 98.549577611 -s 10 -d -1 -p RTS -e 44 -c 2 -a 0 -i 0 -k MAC 
- -t 98.549577611 -s 10 -d -1 -p RTS -e 44 -c 2 -a 0 -i 0 -k MAC
n -t 98.549577611 -s 10 -S COLOR -c red -o yellow
h -t 98.549577611 -s 10 -d -1 -p RTS -e 44 -c 2 -a 0 -i 0 -k MAC -R 3000.000000
v -t 98.549577611 -e sim_annotation 98.549577611 106 node 10 sendout packet (RTS) 0
r -t 100.367314206 -s 12 -d -1 -p RTS -e 44 -c 2 -a 0 -i 0 -k MAC -R 3000.000000
v -t 100.367314206 -e sim_annotation 100.367314206 107 node 12 receive packet(RTS) 0
+ -t 100.377314206 -s 12 -d -1 -p CTS -e 38 -c 2 -a 0 -i 0 -k MAC 
- -t 100.377314206 -s 12 -d -1 -p CTS -e 38 -c 2 -a 0 -i 0 -k MAC
h -t 100.377314206 -s 12 -d -1 -p CTS -e 38 -c 2 -a 0 -i 0 -k MAC -R 3000.000000
v -t 100.377314206 -e sim_annotation 100.377314206 108 node 12 sendout packet (CTS) 0
r -t 100.686498703 -s 13 -d -1 -p RTS -e 44 -c 2 -a 0 -i 0 -k MAC -R 3000.000000
v -t 100.686498703 -e sim_annotation 100.686498703 109 node 13 receive packet(RTS) 0
+ -t 100.696498703 -s 13 -d -1 -p CTS -e 38 -c 2 -a 0 -i 0 -k MAC 
- -t 100.696498703 -s 13 -d -1 -p CTS -e 38 -c 2 -a 0 -i 0 -k MAC
h -t 100.696498703 -s 13 -d -1 -p CTS -e 38 -c 2 -a 0 -i 0 -k MAC -R 3000.000000
v -t 100.696498703 -e sim_annotation 100.696498703 110 node 13 sendout packet (CTS) 0
n -t 102.463367809 -s 4 -S COLOR -c red -o yellow
r -t 102.463367809 -s 4 -d -1 -p CTS -e 38 -c 2 -a 0 -i 0 -k MAC -R 3000.000000
v -t 102.463367809 -e sim_annotation 102.463367809 111 node 4 receive packet(CTS) 0
+ -t 102.473367809 -s 4 -d -1 -p vectorbasedforward -e 352 -c 2 -a 0 -i 14 -k MAC 
- -t 102.473367809 -s 4 -d -1 -p vectorbasedforward -e 352 -c 2 -a 0 -i 14 -k MAC
h -t 102.473367809 -s 4 -d -1 -p vectorbasedforward -e 352 -c 2 -a 0 -i 14 -k MAC -R 3000.000000
v -t 102.473367809 -e sim_annotation 102.473367809 112 node 4 sendout packet (vectorbasedforward) 14
n -t 102.782051601 -s 10 -S COLOR -c red -o yellow
r -t 102.782051601 -s 10 -d -1 -p CTS -e 38 -c 2 -a 0 -i 0 -k MAC -R 3000.000000
v -t 102.782051601 -e sim_annotation 102.782051601 113 node 10 receive packet(CTS) 0
+ -t 102.792051601 -s 10 -d -1 -p vectorbasedforward -e 352 -c 2 -a 0 -i 15 -k MAC 
- -t 102.792051601 -s 10 -d -1 -p vectorbasedforward -e 352 -c 2 -a 0 -i 15 -k MAC
h -t 102.792051601 -s 10 -d -1 -p vectorbasedforward -e 352 -c 2 -a 0 -i 15 -k MAC -R 3000.000000
v -t 102.792051601 -e sim_annotation 102.792051601 114 node 10 sendout packet (vectorbasedforward) 15
r -t 107.068133627 -s 12 -d -1 -p vectorbasedforward -e 300 -c 2 -a 0 -i 14 -k MAC -R 3000.000000
v -t 107.068133627 -e sim_annotation 107.068133627 115 node 12 receive packet(vectorbasedforward) 14
+ -t 107.078133627 -s 12 -d -1 -p ACK -e 38 -c 2 -a 0 -i 0 -k MAC 
- -t 107.078133627 -s 12 -d -1 -p ACK -e 38 -c 2 -a 0 -i 0 -k MAC
h -t 107.078133627 -s 12 -d -1 -p ACK -e 38 -c 2 -a 0 -i 0 -k MAC -R 3000.000000
v -t 107.078133627 -e sim_annotation 107.078133627 116 node 12 sendout packet (ACK) 0
r -t 107.386317607 -s 13 -d -1 -p vectorbasedforward -e 300 -c 2 -a 0 -i 15 -k MAC -R 3000.000000