n -t * -s 0  -x 1000 -y 5000 -Z 0 -z 1000  -v circle -c green
n -t * -s 1  -x 1000 -y 3000 -Z 0 -z 1000  -v circle -c green
n -t * -s 2  -x 1000 -y 1000 -Z 0 -z 1000  -v circle -c green
n -t * -s 3  -x 3000 -y 5000 -Z 0 -z 1000  -v circle -c green
n -t * -s 4  -x 3000 -y 3000 -Z 0 -z 1000  -v circle -c green
n -t * -s 5  -x 3000 -y 1000 -Z 0 -z 1000  -v circle -c green
n -t * -s 6  -x 5000 -y 5000 -Z 0 -z 1000  -v circle -c green
n -t * -s 7  -x 5000 -y 3000 -Z 0 -z 1000  -v circle -c green
n -t * -s 8  -x 5000 -y 1000 -Z 0 -z 1000  -v circle -c green
n -t * -s 9  -x 7000 -y 5000 -Z 0 -z 1000  -v circle -c green
n -t * -s 10  -x 7000 -y 3000 -Z 0 -z 1000  -v circle -c green
n -t * -s 11  -x 7000 -y 1000 -Z 0 -z 1000  -v circle -c green
n -t * -s 12  -x 1700 -y 6000 -Z 0 -z 1000  -v circle -c green
n -t * -s 13  -x 4700 -y 6000 -Z 0 -z 1000  -v circle -c green
V -t * -v 1.0a5 -a 0
W -t * -x 10000 -y 6000
A -t * -n 1 -p 0 -o 0xffffffff -c 31 -a 1
A -t * -h 1 -m 2147483647 -s 0
n -t 15.100000 -s 12 -x 1700.000000 -y 6000.000000 -U 0.000000 -V -2.500000 -T 2396.000000
n -t 15.100000 -s 13 -x 4700.000000 -y 6000.000000 -U 0.000000 -V -2.500000 -T 2396.000000
+ -t 31.766691667 -s 0 -d -1 -p vectorbasedforward -e 9 -c 2 -a 0 -i -1 -k MAC 
- -t 31.766691667 -s 0 -d -1 -p vectorbasedforward -e 9 -c 2 -a 0 -i -1 -k MAC
n -t 31.766691667 -s 0 -S COLOR -c red -o yellow
h -t 31.766691667 -s 0 -d -1 -p vectorbasedforward -e 9 -c 2 -a 0 -i -1 -k MAC -R 3000.000000
v -t 31.766691667 -e sim_annotation 31.766691667 1 node 0 sendout packet (vectorbasedforward) -1
+ -t 31.766691667 -s 1 -d -1 -p vectorbasedforward -e 10 -c 2 -a 0 -i -1 -k MAC 
- -t 31.766691667 -s 1 -d -1 -p vectorbasedforward -e 10 -c 2 -a 0 -i -1 -k MAC
n -t 31.766691667 -s 1 -S COLOR -c red -o yellow
h -t 31.766691667 -s 1 -d -1 -p vectorbasedforward -e 10 -c 2 -a 0 -i -1 -k MAC -R 3000.000000
v -t 31.766691667 -e sim_annotation 31.766691667 2 node 1 sendout packet (vectorbasedforward) -1
+ -t 31.766691667 -s 2 -d -1 -p vectorbasedforward -e 11 -c 2 -a 0 -i -1 -k MAC 
- -t 31.766691667 -s 2 -d -1 -p vectorbasedforward -e 11 -c 2 -a 0 -i -1 -k MAC
n -t 31.766691667 -s 2 -S COLOR -c red -o yellow
h -t 31.766691667 -s 2 -d -1 -p vectorbasedforward -e 11 -c 2 -a 0 -i -1 -k MAC -R 3000.000000
v -t 31.766691667 -e sim_annotation 31.766691667 3 node 2 sendout packet (vectorbasedforward) -1
+ -t 31.766691667 -s 3 -d -1 -p vectorbasedforward -e 12 -c 2 -a 0 -i -1 -k MAC 
- -t 31.766691667 -s 3 -d -1 -p vectorbasedforward -e 12 -c 2 -a 0 -i -1 -k MAC
n -t 31.766691667 -s 3 -S COLOR -c red -o yellow
h -t 31.766691667 -s 3 -d -1 -p vectorbasedforward -e 12 -c 2 -a 0 -i -1 -k MAC -R 3000.000000
v -t 31.766691667 -e sim_annotation 31.766691667 4 node 3 sendout packet (vectorbasedforward) -1
+ -t 31.766691667 -s 4 -d -1 -p vectorbasedforward -e 13 -c 2 -a 0 -i -1 -k MAC 
- -t 31.766691667 -s 4 -d -1 -p vectorbasedforward -e 13 -c 2 -a 0 -i -1 -k MAC
n -t 31.766691667 -s 4 -S COLOR -c red -o yellow
h -t 31.766691667 -s 4 -d -1 -p vectorbasedforward -e 13 -c 2 -a 0 -i -1 -k MAC -R 3000.000000
v -t 31.766691667 -e sim_annotation 31.766691667 5 node 4 sendout packet (vectorbasedforward) -1
+ -t 31.766691667 -s 5 -d -1 -p vectorbasedforward -e 14 -c 2 -a 0 -i -1 -k MAC 
- -t 31.766691667 -s 5 -d -1 -p vectorbasedforward -e 14 -c 2 -a 0 -i -1 -k MAC
n -t 31.766691667 -s 5 -S COLOR -c red -o yellow
h -t 31.766691667 -s 5 -d -1 -p vectorbasedforward -e 14 -c 2 -a 0 -i -1 -k MAC -R 3000.000000
v -t 31.766691667 -e sim_annotation 31.766691667 6 node 5 sendout packet (vectorbasedforward) -1
+ -t 31.766691667 -s 6 -d -1 -p vectorbasedforward -e 15 -c 2 -a 0 -i -1 -k MAC 
- -t 31.766691667 -s 6 -d -1 -p vectorbasedforward -e 15 -c 2 -a 0 -i -1 -k MAC
n -t 31.766691667 -s 6 -S COLOR -c red -o yellow
h -t 31.766691667 -s 6 -d -1 -p vectorbasedforward -e 15 -c 2 -a 0 -i -1 -k MAC -R 3000.000000
v -t 31.766691667 -e sim_annotation 31.766691667 7 node 6 sendout packet (vectorbasedforward) -1
+ -t 31.766691667 -s 7 -d -1 -p vectorbasedforward -e 16 -c 2 -a 0 -i -1 -k MAC 
- -t 31.766691667 -s 7 -d -1 -p vectorbasedforward -e 16 -c 2 -a 0 -i -1 -k MAC
n -t 31.766691667 -s 7 -S COLOR -c red -o yellow
h -t 31.766691667 -s 7 -d -1 -p vectorbasedforward -e 16 -c 2 -a 0 -i -1 -k MAC -R 3000.000000
v -t 31.766691667 -e sim_annotation 31.766691667 8 node 7 sendout packet (vectorbasedforward) -1
+ -t 31.766691667 -s 8 -d -1 -p vectorbasedforward -e 17 -c 2 -a 0 -i -1 -k MAC 
- -t 31.766691667 -s 8 -d -1 -p vectorbasedforward -e 17 -c 2 -a 0 -i -1 -k MAC
n -t 31.766691667 -s 8 -S COLOR -c red -o yellow
h -t 31.766691667 -s 8 -d -1 -p vectorbasedforward -e 17 -c 2 -a 0 -i -1 -k MAC -R 3000.000000
v -t 31.766691667 -e sim_annotation 31.766691667 9 node 8 sendout packet (vectorbasedforward) -1
+ -t 31.766691667 -s 9 -d -1 -p vectorbasedforward -e 18 -c 2 -a 0 -i -1 -k MAC 
- -t 31.766691667 -s 9 -d -1 -p vectorbasedforward -e 18 -c 2 -a 0 -i -1 -k MAC
n -t 31.766691667 -s 9 -S COLOR -c red -o yellow
h -t 31.766691667 -s 9 -d -1 -p vectorbasedforward -e 18 -c 2 -a 0 -i -1 -k MAC -R 3000.000000
v -t 31.766691667 -e sim_annotation 31.766691667 10 node 9 sendout packet (vectorbasedforward) -1
+ -t 31.766691667 -s 10 -d -1 -p vectorbasedforward -e 19 -c 2 -a 0 -i -1 -k MAC 
- -t 31.766691667 -s 10 -d -1 -p vectorbasedforward -e 19 -c 2 -a 0 -i -1 -k MAC
n -t 31.766691667 -s 10 -S COLOR -c red -o yellow
h -t 31.766691667 -s 10 -d -1 -p vectorbasedforward -e 19 -c 2 -a 0 -i -1 -k MAC -R 3000.000000
v -t 31.766691667 -e sim_annotation 31.766691667 11 node 10 sendout packet (vectorbasedforward) -1
+ -t 31.766691667 -s 11 -d -1 -p vectorbasedforward -e 20 -c 2 -a 0 -i -1 -k MAC 
- -t 31.766691667 -s 11 -d -1 -p vectorbasedforward -e 20 -c 2 -a 0 -i -1 -k MAC
n -t 31.766691667 -s 11 -S COLOR -c red -o yellow
h -t 31.766691667 -s 11 -d -1 -p vectorbasedforward -e 20 -c 2 -a 0 -i -1 -k MAC -R 3000.000000
v -t 31.766691667 -e sim_annotation 31.766691667 12 node 11 sendout packet (vectorbasedforward) -1
n -t 32.556153360 -s 13 -S COLOR -c red -o yellow
r -t 32.556153360 -s 13 -d -1 -p vectorbasedforward -e 6 -c 2 -a 0 -i -1 -k MAC -R 3000.000000
v -t 32.556153360 -e sim_annotation 32.556153360 13 node 13 receive packet(vectorbasedforward) -1
n -t 32.629865944 -s 12 -S COLOR -c red -o yellow
r -t 32.629865944 -s 12 -d -1 -p vectorbasedforward -e 0 -c 2 -a 0 -i -1 -k MAC -R 3000.000000
v -t 32.629865944 -e sim_annotation 32.629865944 14 node 12 receive packet(vectorbasedforward) -1
r -t 32.939395001 -s 12 -d -1 -p vectorbasedforward -e 3 -c 2 -a 0 -i -1 -k MAC -R 3000.000000
v -t 32.939395001 -e sim_annotation 32.939395001 15 node 12 receive packet(vectorbasedforward) -1
r -t 33.163700277 -s 13 -d -1 -p vectorbasedforward -e 3 -c 2 -a 0 -i -1 -k MAC -R 3000.000000
v -t 33.163700277 -e sim_annotation 33.163700277 16 node 13 receive packet(vectorbasedforward) -1
r -t 33.571802762 -s 13 -d -1 -p vectorbasedforward -e 9 -c 2 -a 0 -i -1 -k MAC -R 3000.000000
v -t 33.571802762 -e sim_annotation 33.571802762 17 node 13 receive packet(vectorbasedforward) -1
n -t 33.756309750 -s 2 -S COLOR -c red -o yellow
r -t 33.756309750 -s 2 -d -1 -p vectorbasedforward -e 4 -c 2 -a 0 -i -1 -k MAC -R 3000.000000
v -t 33.756309750 -e sim_annotation 33.756309750 18 node 2 receive packet(vectorbasedforward) -1
n -t 33.756309750 -s 0 -S COLOR -c red -o yellow
r -t 33.756309750 -s 0 -d -1 -p vectorbasedforward -e 4 -c 2 -a 0 -i -1 -k MAC -R 3000.000000
v -t 33.756309750 -e sim_annotation 33.756309750 19 node 0 receive packet(vectorbasedforward) -1
n -t 33.780309750 -s 9 -S COLOR -c red -o yellow
r -t 33.780309750 -s 9 -d -1 -p vectorbasedforward -e 7 -c 2 -a 0 -i -1 -k MAC -R 3000.000000
v -t 33.780309750 -e sim_annotation 33.780309750 20 node 9 receive packet(vectorbasedforward) -1
n -t 33.780309750 -s 11 -S COLOR -c red -o yellow
r -t 33.780309750 -s 11 -d -1 -p vectorbasedforward -e 7 -c 2 -a 0 -i -1 -k MAC -R 3000.000000
v -t 33.780309750 -e sim_annotation 33.780309750 21 node 11 receive packet(vectorbasedforward) -1
r -t 33.877028754 -s 13 -d -1 -p vectorbasedforward -e 7 -c 2 -a 0 -i -1 -k MAC -R 3000.000000
v -t 33.877028754 -e sim_annotation 33.877028754 22 node 13 receive packet(vectorbasedforward) -1
+ -t 34.526320591 -s 2 -d -1 -p vectorbasedforward -e 11 -c 2 -a 0 -i -1 -k MAC 
- -t 34.526320591 -s 2 -d -1 -p vectorbasedforward -e 11 -c 2 -a 0 -i -1 -k MAC
h -t 34.526320591 -s 2 -d -1 -p vectorbasedforward -e 11 -c 2 -a 0 -i -1 -k MAC -R 3000.000000
v -t 34.526320591 -e sim_annotation 34.526320591 23 node 2 sendout packet (vectorbasedforward) -1
n -t 35.947653924 -s 1 -S COLOR -c red -o yellow
r -t 35.947653924 -s 1 -d -1 -p vectorbasedforward -e 2 -c 2 -a 0 -i -1 -k MAC -R 3000.000000
v -t 35.947653924 -e sim_annotation 35.947653924 24 node 1 receive packet(vectorbasedforward) -1
n -t 35.947653924 -s 5 -S COLOR -c red -o yellow
r -t 35.947653924 -s 5 -d -1 -p vectorbasedforward -e 2 -c 2 -a 0 -i -1 -k MAC -R 3000.000000
v -t 35.947653924 -e sim_annotation 35.947653924 25 node 5 receive packet(vectorbasedforward) -1
n -t 36.499938674 -s 4 -S COLOR -c red -o yellow
r -t 36.499938674 -s 4 -d -1 -p vectorbasedforward -e 2 -c 2 -a 0 -i -1 -k MAC -R 3000.000000
v -t 36.499938674 -e sim_annotation 36.499938674 26 node 4 receive packet(vectorbasedforward) -1
+ -t 48.433358333 -s 0 -d -1 -p vectorbasedforward -e 9 -c 2 -a 0 -i -1 -k MAC 
- -t 48.433358333 -s 0 -d -1 -p vectorbasedforward -e 9 -c 2 -a 0 -i -1 -k MAC
h -t 48.433358333 -s 0 -d -1 -p vectorbasedforward -e 9 -c 2 -a 0 -i -1 -k MAC -R 3000.000000
v -t 48.433358333 -e sim_annotation 48.433358333 27 node 0 sendout packet (vectorbasedforward) -1
+ -t 48.433358333 -s 1 -d -1 -p vectorbasedforward -e 10 -c 2 -a 0 -i -1 -k MAC 
- -t 48.433358333 -s 1 -d -1 -p vectorbasedforward -e 10 -c 2 -a 0 -i -1 -k MAC
h -t 48.433358333 -s 1 -d -1 -p vectorbasedforward -e 10 -c 2 -a 0 -i -1 -k MAC -R 3000.000000
v -t 48.433358333 -e sim_annotation 48.433358333 28 node 1 sendout packet (vectorbasedforward) -1
+ -t 48.433358333 -s 2 -d -1 -p vectorbasedforward -e 11 -c 2 -a 0 -i -1 -k MAC 
- -t 48.433358333 -s 2 -d -1 -p vectorbasedforward -e 11 -c 2 -a 0 -i -1 -k MAC
h -t 48.433358333 -s 2 -d -1 -p vectorbasedforward -e 11 -c 2 -a 0 -i -1 -k MAC -R 3000.000000
v -t 48.433358333 -e sim_annotation 48.433358333 29 node 2 sendout packet (vectorbasedforward) -1
+ -t 48.433358333 -s 3 -d -1 -p vectorbasedforward -e 12 -c 2 -a 0 -i -1 -k MAC 
- -t 48.433358333 -s 3 -d -1 -p vectorbasedforward -e 12 -c 2 -a 0 -i -1 -k MAC
h -t 48.433358333 -s 3 -d -1 -p vectorbasedforward -e 12 -c 2 -a 0 -i -1 -k MAC -R 3000.000000
v -t 48.433358333 -e sim_annotation 48.433358333 30 node 3 sendout packet (vectorbasedforward) -1
+ -t 48.433358333 -s 4 -d -1 -p vectorbasedforward -e 13 -c 2 -a 0 -i -1 -k MAC 
- -t 48.433358333 -s 4 -d -1 -p vectorbasedforward -e 13 -c 2 -a 0 -i -1 -k MAC
h -t 48.433358333 -s 4 -d -1 -p vectorbasedforward -e 13 -c 2 -a 0 -i -1 -k MAC -R 3000.000000
v -t 48.433358333 -e sim_annotation 48.433358333 31 node 4 sendout packet (vectorbasedforward) -1
+ -t 48.433358333 -s 5 -d -1 -p vectorbasedforward -e 14 -c 2 -a 0 -i -1 -k MAC 
- -t 48.433358333 -s 5 -d -1 -p vectorbasedforward -e 14 -c 2 -a 0 -i -1 -k MAC
h -t 48.433358333 -s 5 -d -1 -p vectorbasedforward -e 14 -c 2 -a 0 -i -1 -k MAC -R 3000.000000
v -t 48.433358333 -e sim_annotation 48.433358333 32 node 5 sendout packet (vectorbasedforward) -1
+ -t 48.433358333 -s 6 -d -1 -p vectorbasedforward -e 15 -c 2 -a 0 -i -1 -k MAC 
- -t 48.433358333 -s 6 -d -1 -p vectorbasedforward -e 15 -c 2 -a 0 -i -1 -k MAC
h -t 48.433358333 -s 6 -d -1 -p vectorbasedforward -e 15 -c 2 -a 0 -i -1 -k MAC -R 3000.000000
v -t 48.433358333 -e sim_annotation 48.433358333 33 node 6 sendout packet (vectorbasedforward) -1
+ -t 48.433358333 -s 7 -d -1 -p vectorbasedforward -e 16 -c 2 -a 0 -i -1 -k MAC 
- -t 48.433358333 -s 7 -d -1 -p vectorbasedforward -e 16 -c 2 -a 0 -i -1 -k MAC
h -t 48.433358333 -s 7 -d -1 -p vectorbasedforward -e 16 -c 2 -a 0 -i -1 -k MAC -R 3000.000000
v -t 48.433358333 -e sim_annotation 48.433358333 34 node 7 sendout packet (vectorbasedforward) -1
+ -t 48.433358333 -s 8 -d -1 -p vectorbasedforward -e 17 -c 2 -a 0 -i -1 -k MAC 
- -t 48.433358333 -s 8 -d -1 -p vectorbasedforward -e 17 -c 2 -a 0 -i -1 -k MAC
h -t 48.433358333 -s 8 -d -1 -p vectorbasedforward -e 17 -c 2 -a 0 -i -1 -k MAC -R 3000.000000
v -t 48.433358333 -e sim_annotation 48.433358333 35 node 8 sendout packet (vectorbasedforward) -1
+ -t 48.433358333 -s 9 -d -1 -p vectorbasedforward -e 18 -c 2 -a 0 -i -1 -k MAC 
- -t 48.433358333 -s 9 -d -1 -p vectorbasedforward -e 18 -c 2 -a 0 -i -1 -k MAC
h -t 48.433358333 -s 9 -d -1 -p vectorbasedforward -e 18 -c 2 -a 0 -i -1 -k MAC -R 3000.000000
v -t 48.433358333 -e sim_annotation 48.433358333 36 node 9 sendout packet (vectorbasedforward) -1
+ -t 48.433358333 -s 10 -d -1 -p vectorbasedforward -e 19 -c 2 -a 0 -i -1 -k MAC 
- -t 48.433358333 -s 10 -d -1 -p vectorbasedforward -e 19 -c 2 -a 0 -i -1 -k MAC
h -t 48.433358333 -s 10 -d -1 -p vectorbasedforward -e 19 -c 2 -a 0 -i -1 -k MAC -R 3000.000000
v -t 48.433358333 -e sim_annotation 48.433358333 37 node 10 sendout packet (vectorbasedforward) -1
+ -t 48.433358333 -s 11 -d -1 -p vectorbasedforward -e 20 -c 2 -a 0 -i -1 -k MAC 
- -t 48.433358333 -s 11 -d -1 -p vectorbasedforward -e 20 -c 2 -a 0 -i -1 -k MAC
h -t 48.433358333 -s 11 -d -1 -p vectorbasedforward -e 20 -c 2 -a 0 -i -1 -k MAC -R 3000.000000
v -t 48.433358333 -e sim_annotation 48.433358333 38 node 11 sendout packet (vectorbasedforward) -1
r -t 49.196364351 -s 13 -d -1 -p vectorbasedforward -e 6 -c 2 -a 0 -i -1 -k MAC -R 3000.000000
v -t 49.196364351 -e sim_annotation 49.196364351 39 node 13 receive packet(vectorbasedforward) -1
r -t 49.274276090 -s 12 -d -1 -p vectorbasedforward -e 0 -c 2 -a 0 -i -1 -k MAC -R 3000.000000
v -t 49.274276090 -e sim_annotation 49.274276090 40 node 12 receive packet(vectorbasedforward) -1
r -t 49.589814768 -s 12 -d -1 -p vectorbasedforward -e 3 -c 2 -a 0 -i -1 -k MAC -R 3000.000000
v -t 49.589814768 -e sim_annotation 49.589814768 41 node 12 receive packet(vectorbasedforward) -1
r -t 49.816953450 -s 13 -d -1 -p vectorbasedforward -e 3 -c 2 -a 0 -i -1 -k MAC -R 3000.000000
v -t 49.816953450 -e sim_annotation 49.816953450 42 node 13 receive packet(vectorbasedforward) -1
r -t 50.227984836 -s 13 -d -1 -p vectorbasedforward -e 9 -c 2 -a 0 -i -1 -k MAC -R 3000.000000
v -t 50.227984836 -e sim_annotation 50.227984836 43 node 13 receive packet(vectorbasedforward) -1
r -t 50.422976416 -s 2 -d -1 -p vectorbasedforward -e 4 -c 2 -a 0 -i -1 -k MAC -R 3000.000000
v -t 50.422976416 -e sim_annotation 50.422976416 44 node 2 receive packet(vectorbasedforward) -1
r -t 50.422976416 -s 0 -d -1 -p vectorbasedforward -e 4 -c 2 -a 0 -i -1 -k MAC -R 3000.000000
v -t 50.422976416 -e sim_annotation 50.422976416 45 node 0 receive packet(vectorbasedforward) -1
r -t 50.446976416 -s 9 -d -1 -p vectorbasedforward -e 7 -c 2 -a 0 -i -1 -k MAC -R 3000.000000
v -t 50.446976416 -e sim_annotation 50.446976416 46 node 9 receive packet(vectorbasedforward) -1
r -t 50.446976416 -s 11 -d -1 -p vectorbasedforward -e 7 -c 2 -a 0 -i -1 -k MAC -R 3000.000000
v -t 50.446976416 -e sim_annotation 50.446976416 47 node 11 receive packet(vectorbasedforward) -1
r -t 50.513018758 -s 12 -d -1 -p vectorbasedforward -e 1 -c 2 -a 0 -i -1 -k MAC -R 3000.000000
v -t 50.513018758 -e sim_annotation 50.513018758 48 node 12 receive packet(vectorbasedforward) -1
r -t 50.516061389 -s 13 -d -1 -p vectorbasedforward -e 7 -c 2 -a 0 -i -1 -k MAC -R 3000.000000
v -t 50.516061389 -e sim_annotation 50.516061389 49 node 13 receive packet(vectorbasedforward) -1
+ -t 51.192987258 -s 2 -d -1 -p vectorbasedforward -e 11 -c 2 -a 0 -i -1 -k MAC 
- -t 51.192987258 -s 2 -d -1 -p vectorbasedforward -e 11 -c 2 -a 0 -i -1 -k MAC
h -t 51.192987258 -s 2 -d -1 -p vectorbasedforward -e 11 -c 2 -a 0 -i -1 -k MAC -R 3000.000000
v -t 51.192987258 -e sim_annotation 51.192987258 50 node 2 sendout packet (vectorbasedforward) -1
r -t 52.614320591 -s 1 -d -1 -p vectorbasedforward -e 2 -c 2 -a 0 -i -1 -k MAC -R 3000.000000
v -t 52.614320591 -e sim_annotation 52.614320591 51 node 1 receive packet(vectorbasedforward) -1
r -t 52.614320591 -s 5 -d -1 -p vectorbasedforward -e 2 -c 2 -a 0 -i -1 -k MAC -R 3000.000000
v -t 52.614320591 -e sim_annotation 52.614320591 52 node 5 receive packet(vectorbasedforward) -1
r -t 53.166605341 -s 4 -d -1 -p vectorbasedforward -e 2 -c 2 -a 0 -i -1 -k MAC -R 3000.000000
v -t 53.166605341 -e sim_annotation 53.166605341 53 node 4 receive packet(vectorbasedforward) -1
+ -t 65.100025000 -s 0 -d -1 -p vectorbasedforward -e 9 -c 2 -a 0 -i -1 -k MAC 
- -t 65.100025000 -s 0 -d -1 -p vectorbasedforward -e 9 -c 2 -a 0 -i -1 -k MAC
h -t 65.100025000 -s 0 -d -1 -p vectorbasedforward -e 9 -c 2 -a 0 -i -1 -k MAC -R 3000.000000
v -t 65.100025000 -e sim_annotation 65.100025000 54 node 0 sendout packet (vectorbasedforward) -1
+ -t 65.100025000 -s 1 -d -1 -p vectorbasedforward -e 10 -c 2 -a 0 -i -1 -k MAC 
- -t 65.100025000 -s 1 -d -1 -p vectorbasedforward -e 10 -c 2 -a 0 -i -1 -k MAC
h -t 65.100025000 -s 1 -d -1 -p vectorbasedforward -e 10 -c 2 -a 0 -i -1 -k MAC -R 3000.000000
v -t 65.100025000 -e sim_annotation 65.100025000 55 node 1 sendout packet (vectorbasedforward) -1
+ -t 65.100025000 -s 2 -d -1 -p vectorbasedforward -e 11 -c 2 -a 0 -i -1 -k MAC 
- -t 65.100025000 -s 2 -d -1 -p vectorbasedforward -e 11 -c 2 -a 0 -i -1 -k MAC
h -t 65.100025000 -s 2 -d -1 -p vectorbasedforward -e 11 -c 2 -a 0 -i -1 -k MAC -R 3000.000000
v -t 65.100025000 -e sim_annotation 65.100025000 56 node 2 sendout packet (vectorbasedforward) -1
+ -t 65.100025000 -s 3 -d -1 -p vectorbasedforward -e 12 -c 2 -a 0 -i -1 -k MAC 
- -t 65.100025000 -s 3 -d -1 -p vectorbasedforward -e 12 -c 2 -a 0 -i -1 -k MAC
h -t 65.100025000 -s 3 -d -1 -p vectorbasedforward -e 12 -c 2 -a 0 -i -1 -k MAC -R 3000.000000
v -t 65.100025000 -e sim_annotation 65.100025000 57 node 3 sendout packet (vectorbasedforward) -1
+ -t 65.100025000 -s 4 -d -1 -p vectorbasedforward -e 13 -c 2 -a 0 -i -1 -k MAC 
- -t 65.100025000 -s 4 -d -1 -p vectorbasedforward -e 13 -c 2 -a 0 -i -1 -k MAC
h -t 65.100025000 -s 4 -d -1 -p vectorbasedforward -e 13 -c 2 -a 0 -i -1 -k MAC -R 3000.000000
v -t 65.100025000 -e sim_annotation 65.100025000 58 node 4 sendout packet (vectorbasedforward) -1
+ -t 65.100025000 -s 5 -d -1 -p vectorbasedforward -e 14 -c 2 -a 0 -i -1 -k MAC 
- -t 65.100025000 -s 5 -d -1 -p vectorbasedforward -e 14 -c 2 -a 0 -i -1 -k MAC
h -t 65.100025000 -s 5 -d -1 -p vectorbasedforward -e 14 -c 2 -a 0 -i -1 -k MAC -R 3000.000000
v -t 65.100025000 -e sim_annotation 65.100025000 59 node 5 sendout packet (vectorbasedforward) -1
+ -t 65.100025000 -s 6 -d -1 -p vectorbasedforward -e 15 -c 2 -a 0 -i -1 -k MAC 
- -t 65.100025000 -s 6 -d -1 -p vectorbasedforward -e 15 -c 2 -a 0 -i -1 -k MAC
h -t 65.100025000 -s 6 -d -1 -p vectorbasedforward -e 15 -c 2 -a 0 -i -1 -k MAC -R 3000.000000
v -t 65.100025000 -e sim_annotation 65.100025000 60 node 6 sendout packet (vectorbasedforward) -1
+ -t 65.100025000 -s 7 -d -1 -p vectorbasedforward -e 16 -c 2 -a 0 -i -1 -k MAC 
- -t 65.100025000 -s 7 -d -1 -p vectorbasedforward -e 16 -c 2 -a 0 -i -1 -k MAC
h -t 65.100025000 -s 7 -d -1 -p vectorbasedforward -e 16 -c 2 -a 0 -i -1 -k MAC -R 3000.000000
v -t 65.100025000 -e sim_annotation 65.100025000 61 node 7 sendout packet (vectorbasedforward) -1
+ -t 65.100025000 -s 8 -d -1 -p vectorbasedforward -e 17 -c 2 -a 0 -i -1 -k MAC 
- -t 65.100025000 -s 8 -d -1 -p vectorbasedforward -e 17 -c 2 -a 0 -i -1 -k MAC
h -t 65.100025000 -s 8 -d -1 -p vectorbasedforward -e 17 -c 2 -a 0 -i -1 -k MAC -R 3000.000000
v -t 65.100025000 -e sim_annotation 65.100025000 62 node 8 sendout packet (vectorbasedforward) -1
+ -t 65.100025000 -s 9 -d -1 -p vectorbasedforward -e 18 -c 2 -a 0 -i -1 -k MAC 
- -t 65.100025000 -s 9 -d -1 -p vectorbasedforward -e 18 -c 2 -a 0 -i -1 -k MAC
h -t 65.100025000 -s 9 -d -1 -p vectorbasedforward -e 18 -c 2 -a 0 -i -1 -k MAC -R 3000.000000
v -t 65.100025000 -e sim_annotation 65.100025000 63 node 9 sendout packet (vectorbasedforward) -1
+ -t 65.100025000 -s 10 -d -1 -p vectorbasedforward -e 19 -c 2 -a 0 -i -1 -k MAC 
- -t 65.100025000 -s 10 -d -1 -p vectorbasedforward -e 19 -c 2 -a 0 -i -1 -k MAC
h -t 65.100025000 -s 10 -d -1 -p vectorbasedforward -e 19 -c 2 -a 0 -i -1 -k MAC -R 3000.000000
v -t 65.100025000 -e sim_annotation 65.100025000 64 node 10 sendout packet (vectorbasedforward) -1
+ -t 65.100025000 -s 11 -d -1 -p vectorbasedforward -e 20 -c 2 -a 0 -i -1 -k MAC 
- -t 65.100025000 -s 11 -d -1 -p vectorbasedforward -e 20 -c 2 -a 0 -i -1 -k MAC
h -t 65.100025000 -s 11 -d -1 -p vectorbasedforward -e 20 -c 2 -a 0 -i -1 -k MAC -R 3000.000000
v -t 65.100025000 -e sim_annotation 65.100025000 65 node 11 sendout packet (vectorbasedforward) -1
r -t 65.836691627 -s 13 -d -1 -p vectorbasedforward -e 6 -c 2 -a 0 -i -1 -k MAC -R 3000.000000
v -t 65.836691627 -e sim_annotation 65.836691627 66 node 13 receive packet(vectorbasedforward) -1
r -t 65.919056128 -s 12 -d -1 -p vectorbasedforward -e 0 -c 2 -a 0 -i -1 -k MAC -R 3000.000000
v -t 65.919056128 -e sim_annotation 65.919056128 67 node 12 receive packet(vectorbasedforward) -1
r -t 66.240720573 -s 12 -d -1 -p vectorbasedforward -e 3 -c 2 -a 0 -i -1 -k MAC -R 3000.000000
v -t 66.240720573 -e sim_annotation 66.240720573 68 node 12 receive packet(vectorbasedforward) -1
r -t 66.470670901 -s 13 -d -1 -p vectorbasedforward -e 3 -c 2 -a 0 -i -1 -k MAC -R 3000.000000
v -t 66.470670901 -e sim_annotation 66.470670901 69 node 13 receive packet(vectorbasedforward) -1
r -t 66.884570287 -s 13 -d -1 -p vectorbasedforward -e 9 -c 2 -a 0 -i -1 -k MAC -R 3000.000000
v -t 66.884570287 -e sim_annotation 66.884570287 70 node 13 receive packet(vectorbasedforward) -1
r -t 67.089643083 -s 2 -d -1 -p vectorbasedforward -e 4 -c 2 -a 0 -i -1 -k MAC -R 3000.000000
v -t 67.089643083 -e sim_annotation 67.089643083 71 node 2 receive packet(vectorbasedforward) -1
r -t 67.089643083 -s 0 -d -1 -p vectorbasedforward -e 4 -c 2 -a 0 -i -1 -k MAC -R 3000.000000
v -t 67.089643083 -e sim_annotation 67.089643083 72 node 0 receive packet(vectorbasedforward) -1
r -t 67.113643083 -s 9 -d -1 -p vectorbasedforward -e 7 -c 2 -a 0 -i -1 -k MAC -R 3000.000000
v -t 67.113643083 -e sim_annotation 67.113643083 73 node 9 receive packet(vectorbasedforward) -1
r -t 67.113643083 -s 11 -d -1 -p vectorbasedforward -e 7 -c 2 -a 0 -i -1 -k MAC -R 3000.000000
v -t 67.113643083 -e sim_annotation 67.113643083 74 node 11 receive packet(vectorbasedforward) -1
r -t 67.152685318 -s 12 -d -1 -p vectorbasedforward -e 1 -c 2 -a 0 -i -1 -k MAC -R 3000.000000
v -t 67.152685318 -e sim_annotation 67.152685318 75 node 12 receive packet(vectorbasedforward) -1
r -t 67.155098157 -s 13 -d -1 -p vectorbasedforward -e 7 -c 2 -a 0 -i -1 -k MAC -R 3000.000000
v -t 67.155098157 -e sim_annotation 67.155098157 76 node 13 receive packet(vectorbasedforward) -1
+ -t 67.859653924 -s 2 -d -1 -p vectorbasedforward -e 11 -c 2 -a 0 -i -1 -k MAC 
- -t 67.859653924 -s 2 -d -1 -p vectorbasedforward -e 11 -c 2 -a 0 -i -1 -k MAC
h -t 67.859653924 -s 2 -d -1 -p vectorbasedforward -e 11 -c 2 -a 0 -i -1 -k MAC -R 3000.000000
v -t 67.859653924 -e sim_annotation 67.859653924 77 node 2 sendout packet (vectorbasedforward) -1
r -t 69.280987258 -s 1 -d -1 -p vectorbasedforward -e 2 -c 2 -a 0 -i -1 -k MAC -R 3000.000000
v -t 69.280987258 -e sim_annotation 69.280987258 78 node 1 receive packet(vectorbasedforward) -1
r -t 69.280987258 -s 5 -d -1 -p vectorbasedforward -e 2 -c 2 -a 0 -i -1 -k MAC -R 3000.000000
v -t 69.280987258 -e sim_annotation 69.280987258 79 node 5 receive packet(vectorbasedforward) -1
r -t 69.833272007 -s 4 -d -1 -p vectorbasedforward -e 2 -c 2 -a 0 -i -1 -k MAC -R 3000.000000
v -t 69.833272007 -e sim_annotation 69.833272007 80 node 4 receive packet(vectorbasedforward) -1
+ -t 81.766691667 -s 0 -d -1 -p vectorbasedforward -e 9 -c 2 -a 0 -i -1 -k MAC 
- -t 81.766691667 -s 0 -d -1 -p vectorbasedforward -e 9 -c 2 -a 0 -i -1 -k MAC
h -t 81.766691667 -s 0 -d -1 -p vectorbasedforward -e 9 -c 2 -a 0 -i -1 -k MAC -R 3000.000000
v -t 81.766691667 -e sim_annotation 81.766691667 81 node 0 sendout packet (vectorbasedforward) -1
+ -t 81.766691667 -s 1 -d -1 -p vectorbasedforward -e 10 -c 2 -a 0 -i -1 -k MAC 
- -t 81.766691667 -s 1 -d -1 -p vectorbasedforward -e 10 -c 2 -a 0 -i -1 -k MAC
h -t 81.766691667 -s 1 -d -1 -p vectorbasedforward -e 10 -c 2 -a 0 -i -1 -k MAC -R 3000.000000
v -t 81.766691667 -e sim_annotation 81.766691667 82 node 1 sendout packet (vectorbasedforward) -1
+ -t 81.766691667 -s 2 -d -1 -p vectorbasedforward -e 11 -c 2 -a 0 -i -1 -k MAC 
- -t 81.766691667 -s 2 -d -1 -p vectorbasedforward -e 11 -c 2 -a 0 -i -1 -k MAC
h -t 81.766691667 -s 2 -d -1 -p vectorbasedforward -e 11 -c 2 -a 0 -i -1 -k MAC -R 3000.000000
v -t 81.766691667 -e sim_annotation 81.766691667 83 node 2 sendout packet (vectorbasedforward) -1
+ -t 81.766691667 -s 3 -d -1 -p vectorbasedforward -e 12 -c 2 -a 0 -i -1 -k MAC 
- -t 81.766691667 -s 3 -d -1 -p vectorbasedforward -e 12 -c 2 -a 0 -i -1 -k MAC
h -t 81.766691667 -s 3 -d -1 -p vectorbasedforward -e 12 -c 2 -a 0 -i -1 -k MAC -R 3000.000000
v -t 81.766691667 -e sim_annotation 81.766691667 84 node 3 sendout packet (vectorbasedforward) -1
+ -t 81.766691667 -s 4 -d -1 -p vectorbasedforward -e 13 -c 2 -a 0 -i -1 -k MAC 
- -t 81.766691667 -s 4 -d -1 -p vectorbasedforward -e 13 -c 2 -a 0 -i -1 -k MAC
h -t 81.766691667 -s 4 -d -1 -p vectorbasedforward -e 13 -c 2 -a 0 -i -1 -k MAC -R 3000.000000
v -t 81.766691667 -e sim_annotation 81.766691667 85 node 4 sendout packet (vectorbasedforward) -1
+ -t 81.766691667 -s 5 -d -1 -p vectorbasedforward -e 14 -c 2 -a 0 -i -1 -k MAC 
- -t 81.766691667 -s 5 -d -1 -p vectorbasedforward -e 14 -c 2 -a 0 -i -1 -k MAC
h -t 81.766691667 -s 5 -d -1 -p vectorbasedforward -e 14 -c 2 -a 0 -i -1 -k MAC -R 3000.000000
v -t 81.766691667 -e sim_annotation 81.766691667 86 node 5 sendout packet (vectorbasedforward) -1
+ -t 81.766691667 -s 6 -d -1 -p vectorbasedforward -e 15 -c 2 -a 0 -i -1 -k MAC 
- -t 81.766691667 -s 6 -d -1 -p vectorbasedforward -e 15 -c 2 -a 0 -i -1 -k MAC
h -t 81.766691667 -s 6 -d -1 -p vectorbasedforward -e 15 -c 2 -a 0 -i -1 -k MAC -R 3000.000000
v -t 81.766691667 -e sim_annotation 81.766691667 87 node 6 sendout packet (vectorbasedforward) -1
+ -t 81.766691667 -s 7 -d -1 -p vectorbasedforward -e 16 -c 2 -a 0 -i -1 -k MAC 
- -t 81.766691667 -s 7 -d -1 -p vectorbasedforward -e 16 -c 2 -a 0 -i -1 -k MAC
h -t 81.766691667 -s 7 -d -1 -p vectorbasedforward -e 16 -c 2 -a 0 -i -1 -k MAC -R 3000.000000
v -t 81.766691667 -e sim_annotation 81.766691667 88 node 7 sendout packet (vectorbasedforward) -1
+ -t 81.766691667 -s 8 -d -1 -p vectorbasedforward -e 17 -c 2 -a 0 -i -1 -k MAC 
- -t 81.766691667 -s 8 -d -1 -p vectorbasedforward -e 17 -c 2 -a 0 -i -1 -k MAC
h -t 81.766691667 -s 8 -d -1 -p vectorbasedforward -e 17 -c 2 -a 0 -i -1 -k MAC -R 3000.000000
v -t 81.766691667 -e sim_annotation 81.766691667 89 node 8 sendout packet (vectorbasedforward) -1
+ -t 81.766691667 -s 9 -d -1 -p vectorbasedforward -e 18 -c 2 -a 0 -i -1 -k MAC 
- -t 81.766691667 -s 9 -d -1 -p vectorbasedforward -e 18 -c 2 -a 0 -i -1 -k MAC
h -t 81.766691667 -s 9 -d -1 -p vectorbasedforward -e 18 -c 2 -a 0 -i -1 -k MAC -R 3000.000000
v -t 81.766691667 -e sim_annotation 81.766691667 90 node 9 sendout packet (vectorbasedforward) -1
+ -t 81.766691667 -s 10 -d -1 -p vectorbasedforward -e 19 -c 2 -a 0 -i -1 -k MAC 
- -t 81.766691667 -s 10 -d -1 -p vectorbasedforward -e 19 -c 2 -a 0 -i -1 -k MAC
h -t 81.766691667 -s 10 -d -1 -p vectorbasedforward -e 19 -c 2 -a 0 -i -1 -k MAC -R 3000.000000
v -t 81.766691667 -e sim_annotation 81.766691667 91 node 10 sendout packet (vectorbasedforward) -1
+ -t 81.766691667 -s 11 -d -1 -p vectorbasedforward -e 20 -c 2 -a 0 -i -1 -k MAC 
- -t 81.766691667 -s 11 -d -1 -p vectorbasedforward -e 20 -c 2 -a 0 -i -1 -k MAC
h -t 81.766691667 -s 11 -d -1 -p vectorbasedforward -e 20 -c 2 -a 0 -i -1 -k MAC -R 3000.000000
v -t 81.766691667 -e sim_annotation 81.766691667 92 node 11 sendout packet (vectorbasedforward) -1
r -t 82.477150750 -s 13 -d -1 -p vectorbasedforward -e 6 -c 2 -a 0 -i -1 -k MAC -R 3000.000000
v -t 82.477150750 -e sim_annotation 82.477150750 93 node 13 receive packet(vectorbasedforward) -1
r -t 82.564239533 -s 12 -d -1 -p vectorbasedforward -e 0 -c 2 -a 0 -i -1 -k MAC -R 3000.000000
v -t 82.564239533 -e sim_annotation 82.564239533 94 node 12 receive packet(vectorbasedforward) -1
r -t 82.892134739 -s 12 -d -1 -p vectorbasedforward -e 3 -c 2 -a 0 -i -1 -k MAC -R 3000.000000
v -t 82.892134739 -e sim_annotation 82.892134739 95 node 12 receive packet(vectorbasedforward) -1
r -t 83.124866921 -s 13 -d -1 -p vectorbasedforward -e 3 -c 2 -a 0 -i -1 -k MAC -R 3000.000000
v -t 83.124866921 -e sim_annotation 83.124866921 96 node 13 receive packet(vectorbasedforward) -1
r -t 83.541566598 -s 13 -d -1 -p vectorbasedforward -e 9 -c 2 -a 0 -i -1 -k MAC -R 3000.000000
v -t 83.541566598 -e sim_annotation 83.541566598 97 node 13 receive packet(vectorbasedforward) -1
r -t 83.756309750 -s 2 -d -1 -p vectorbasedforward -e 4 -c 2 -a 0 -i -1 -k MAC -R 3000.000000
v -t 83.756309750 -e sim_annotation 83.756309750 98 node 2 receive packet(vectorbasedforward) -1
r -t 83.756309750 -s 0 -d -1 -p vectorbasedforward -e 4 -c 2 -a 0 -i -1 -k MAC -R 3000.000000
v -t 83.756309750 -e sim_annotation 83.756309750 99 node 0 receive packet(vectorbasedforward) -1
r -t 83.780309750 -s 9 -d -1 -p vectorbasedforward -e 7 -c 2 -a 0 -i -1 -k MAC -R 3000.000000
v -t 83.780309750 -e sim_annotation 83.780309750 100 node 9 receive packet(vectorbasedforward) -1
r -t 83.780309750 -s 11 -d -1 -p vectorbasedforward -e 7 -c 2 -a 0 -i -1 -k MAC -R 3000.000000
v -t 83.780309750 -e sim_annotation 83.780309750 101 node 11 receive packet(vectorbasedforward) -1
r -t 83.792373772 -s 12 -d -1 -p vectorbasedforward -e 1 -c 2 -a 0 -i -1 -k MAC -R 3000.000000