vectorbased
M 0.0 nn 14 x 10000 y 6000 z 0
M 0.0 prop Propagation/UnderwaterPropagation ant Antenna/OmniAntenna
M 15.10000 12 (1700.00, 6000.00, 0.00), (1700.00, 10.00), 2.50
M 15.10000 13 (4700.00, 6000.00, 0.00), (4700.00, 10.00), 2.50
M 15.10000 12 (1700.00, 6000.00, 0.00), (1700.00, 10.00), 2.50
M 15.10000 13 (4700.00, 6000.00, 0.00), (4700.00, 10.00), 2.50
M 15.10000 12 (1700.00, 6000.00, 0.00), (1700.00, 10.00), 2.50
M 15.10000 13 (4700.00, 6000.00, 0.00), (4700.00, 10.00), 2.50
M 15.10000 12 (1700.00, 6000.00, 0.00), (1700.00, 10.00), 2.50
M 15.10000 13 (4700.00, 6000.00, 0.00), (4700.00, 10.00), 2.50
M 15.10000 12 (1700.00, 6000.00, 0.00), (1700.00, 10.00), 2.50
M 15.10000 13 (4700.00, 6000.00, 0.00), (4700.00, 10.00), 2.50
M 15.10000 12 (1700.00, 6000.00, 0.00), (1700.00, 10.00), 2.50
M 15.10000 13 (4700.00, 6000.00, 0.00), (4700.00, 10.00), 2.50
M 15.10000 12 (1700.00, 6000.00, 0.00), (1700.00, 10.00), 2.50
M 15.10000 13 (4700.00, 6000.00, 0.00), (4700.00, 10.00), 2.50
M 15.10000 12 (1700.00, 6000.00, 0.00), (1700.00, 10.00), 2.50
M 15.10000 13 (4700.00, 6000.00, 0.00), (4700.00, 10.00), 2.50
M 15.10000 12 (1700.00, 6000.00, 0.00), (1700.00, 10.00), 2.50
M 15.10000 13 (4700.00, 6000.00, 0.00), (4700.00, 10.00), 2.50
M 15.10000 12 (1700.00, 6000.00, 0.00), (1700.00, 10.00), 2.50
M 15.10000 13 (4700.00, 6000.00, 0.00), (4700.00, 10.00), 2.50
M 15.10000 12 (1700.00, 6000.00, 0.00), (1700.00, 10.00), 2.50
M 15.10000 13 (4700.00, 6000.00, 0.00), (4700.00, 10.00), 2.50
M 15.10000 12 (1700.00, 6000.00, 0.00), (1700.00, 10.00), 2.50
M 15.10000 13 (4700.00, 6000.00, 0.00), (4700.00, 10.00), 2.50
M 15.10000 12 (1700.00, 6000.00, 0.00), (1700.00, 10.00), 2.50
M 15.10000 13 (4700.00, 6000.00, 0.00), (4700.00, 10.00), 2.50
M 15.10000 12 (1700.00, 6000.00, 0.00), (1700.00, 10.00), 2.50
M 15.10000 13 (4700.00, 6000.00, 0.00), (4700.00, 10.00), 2.50
M 15.10000 12 (1700.00, 6000.00, 0.00), (1700.00, 10.00), 2.50
M 15.10000 13 (4700.00, 6000.00, 0.00), (4700.00, 10.00), 2.50
M 15.10000 12 (1700.00, 6000.00, 0.00), (1700.00, 10.00), 2.50
M 15.10000 13 (4700.00, 6000.00, 0.00), (4700.00, 10.00), 2.50
M 15.10000 12 (1700.00, 6000.00, 0.00), (1700.00, 10.00), 2.50
M 15.10000 13 (4700.00, 6000.00, 0.00), (4700.00, 10.00), 2.50
s 31.766691667 _0_ MAC  --- -1 vectorbasedforward 9 [0 9000000 ffff0000 f672] [energy 199993.800000 ei 6.200 es 0.000 et 0.000 er 0.000] ------- [60:9 -1:0 0 0] 
s 31.766691667 _1_ MAC  --- -1 vectorbasedforward 10 [0 a000000 ffff0000 f672] [energy 199993.800000 ei 6.200 es 0.000 et 0.000 er 0.000] ------- [60:10 -1:0 0 0] 
s 31.766691667 _2_ MAC  --- -1 vectorbasedforward 11 [0 b000000 ffff0000 f672] [energy 199993.800000 ei 6.200 es 0.000 et 0.000 er 0.000] ------- [60:11 -1:0 0 0] 
s 31.766691667 _3_ MAC  --- -1 vectorbasedforward 12 [0 c000000 ffff0000 f672] [energy 199993.800000 ei 6.200 es 0.000 et 0.000 er 0.000] ------- [60:12 -1:0 0 0] 
s 31.766691667 _4_ MAC  --- -1 vectorbasedforward 13 [0 d000000 ffff0000 f672] [energy 199993.800000 ei 6.200 es 0.000 et 0.000 er 0.000] ------- [60:13 -1:0 0 0] 
s 31.766691667 _5_ MAC  --- -1 vectorbasedforward 14 [0 e000000 ffff0000 f672] [energy 199993.800000 ei 6.200 es 0.000 et 0.000 er 0.000] ------- [60:14 -1:0 0 0] 
s 31.766691667 _6_ MAC  --- -1 vectorbasedforward 15 [0 f000000 ffff0000 f672] [energy 199993.800000 ei 6.200 es 0.000 et 0.000 er 0.000] ------- [60:15 -1:0 0 0] 
s 31.766691667 _7_ MAC  --- -1 vectorbasedforward 16 [0 10000000 ffff0000 f672] [energy 199993.800000 ei 6.200 es 0.000 et 0.000 er 0.000] ------- [60:16 -1:0 0 0] 
s 31.766691667 _8_ MAC  --- -1 vectorbasedforward 17 [0 11000000 ffff0000 f672] [energy 199993.800000 ei 6.200 es 0.000 et 0.000 er 0.000] ------- [60:17 -1:0 0 0] 
s 31.766691667 _9_ MAC  --- -1 vectorbasedforward 18 [0 12000000 ffff0000 f672] [energy 199993.800000 ei 6.200 es 0.000 et 0.000 er 0.000] ------- [60:18 -1:0 0 0] 
s 31.766691667 _10_ MAC  --- -1 vectorbasedforward 19 [0 13000000 ffff0000 f672] [energy 199993.800000 ei 6.200 es 0.000 et 0.000 er 0.000] ------- [60:19 -1:0 0 0] 
s 31.766691667 _11_ MAC  --- -1 vectorbasedforward 20 [0 14000000 ffff0000 f672] [energy 199993.800000 ei 6.200 es 0.000 et 0.000 er 0.000] ------- [60:20 -1:0 0 0] 
M 15.10000 12 (1700.00, 6000.00, 0.00), (1700.00, 10.00), 2.50
M 15.10000 13 (4700.00, 6000.00, 0.00), (4700.00, 10.00), 2.50
r 32.556153360 _13_ MAC  --- -1 vectorbasedforward 6 [0 6000000 ffff0000 f672] [energy 199993.392769 ei 6.487 es 0.000 et 0.000 er 0.120] ------- [60:6 -1:0 0 0] 
r 32.629865944 _12_ MAC  --- -1 vectorbasedforward 0 [0 0 ffff0000 f672] [energy 199993.416427 ei 6.512 es 0.000 et 0.000 er 0.072] ------- [60:0 -1:0 0 0] 
r 32.939395001 _12_ MAC  --- -1 vectorbasedforward 3 [0 3000000 ffff0000 f672] [energy 199993.277721 ei 6.554 es 0.000 et 0.000 er 0.168] ------- [60:3 -1:0 0 0] 
M 15.10000 12 (1700.00, 6000.00, 0.00), (1700.00, 10.00), 2.50
M 15.10000 13 (4700.00, 6000.00, 0.00), (4700.00, 10.00), 2.50
r 33.163700277 _13_ MAC  --- -1 vectorbasedforward 3 [0 3000000 ffff0000 f672] [energy 199993.194460 ei 6.590 es 0.000 et 0.000 er 0.216] ------- [60:3 -1:0 0 0] 
r 33.571802762 _13_ MAC  --- -1 vectorbasedforward 9 [0 9000000 ffff0000 f672] [energy 199992.997639 ei 6.642 es 0.000 et 0.000 er 0.360] ------- [60:9 -1:0 0 0] 
r 33.756309750 _2_ MAC  --- -1 vectorbasedforward 4 [0 4000000 ffff0000 f672] [energy 199990.453538 ei 6.690 es 0.000 et 2.640 er 0.216] ------- [60:4 -1:0 0 0] 
r 33.756309750 _0_ MAC  --- -1 vectorbasedforward 4 [0 4000000 ffff0000 f672] [energy 199990.943138 ei 6.697 es 0.000 et 2.160 er 0.200] ------- [60:4 -1:0 0 0] 
r 33.780309750 _9_ MAC  --- -1 vectorbasedforward 7 [0 7000000 ffff0000 f672] [energy 199988.728738 ei 6.671 es 0.000 et 4.320 er 0.280] ------- [60:7 -1:0 0 0] 
r 33.780309750 _11_ MAC  --- -1 vectorbasedforward 7 [0 7000000 ffff0000 f672] [energy 199988.251938 ei 6.668 es 0.000 et 4.800 er 0.280] ------- [60:7 -1:0 0 0] 
r 33.877028754 _13_ MAC  --- -1 vectorbasedforward 7 [0 7000000 ffff0000 f672] [energy 199992.834194 ei 6.678 es 0.000 et 0.000 er 0.488] ------- [60:7 -1:0 0 0] 
M 15.10000 12 (1700.00, 6000.00, 0.00), (1700.00, 10.00), 2.50
M 15.10000 13 (4700.00, 6000.00, 0.00), (4700.00, 10.00), 2.50
s 34.526320591 _2_ MAC  --- -1 vectorbasedforward 11 [0 b000000 ffff0000 9bd] [energy 199990.404800 ei 6.739 es 0.000 et 2.640 er 0.216] ------- [60:11 -1:0 0 0] 
M 15.10000 12 (1700.00, 6000.00, 0.00), (1700.00, 10.00), 2.50
M 15.10000 13 (4700.00, 6000.00, 0.00), (4700.00, 10.00), 2.50
r 35.947653924 _1_ MAC  --- -1 vectorbasedforward 2 [0 2000000 ffff0000 9bd] [energy 199990.183269 ei 7.113 es 0.000 et 2.400 er 0.304] ------- [60:2 -1:0 0 0] 
r 35.947653924 _5_ MAC  --- -1 vectorbasedforward 2 [0 2000000 ffff0000 9bd] [energy 199989.191269 ei 7.097 es 0.000 et 3.360 er 0.352] ------- [60:2 -1:0 0 0] 
M 15.10000 12 (1700.00, 6000.00, 0.00), (1700.00, 10.00), 2.50
M 15.10000 13 (4700.00, 6000.00, 0.00), (4700.00, 10.00), 2.50
r 36.499938674 _4_ MAC  --- -1 vectorbasedforward 2 [0 2000000 ffff0000 9bd] [energy 199989.319212 ei 7.209 es 0.000 et 3.120 er 0.352] ------- [60:2 -1:0 0 0] 
M 15.10000 12 (1700.00, 6000.00, 0.00), (1700.00, 10.00), 2.50
M 15.10000 13 (4700.00, 6000.00, 0.00), (4700.00, 10.00), 2.50
M 15.10000 12 (1700.00, 6000.00, 0.00), (1700.00, 10.00), 2.50
M 15.10000 13 (4700.00, 6000.00, 0.00), (4700.00, 10.00), 2.50
M 15.10000 12 (1700.00, 6000.00, 0.00), (1700.00, 10.00), 2.50
M 15.10000 13 (4700.00, 6000.00, 0.00), (4700.00, 10.00), 2.50
M 15.10000 12 (1700.00, 6000.00, 0.00), (1700.00, 10.00), 2.50
M 15.10000 13 (4700.00, 6000.00, 0.00), (4700.00, 10.00), 2.50
M 15.10000 12 (1700.00, 6000.00, 0.00), (1700.00, 10.00), 2.50
M 15.10000 13 (4700.00, 6000.00, 0.00), (4700.00, 10.00), 2.50
M 15.10000 12 (1700.00, 6000.00, 0.00), (1700.00, 10.00), 2.50
M 15.10000 13 (4700.00, 6000.00, 0.00), (4700.00, 10.00), 2.50
M 15.10000 12 (1700.00, 6000.00, 0.00), (1700.00, 10.00), 2.50
M 15.10000 13 (4700.00, 6000.00, 0.00), (4700.00, 10.00), 2.50
M 15.10000 12 (1700.00, 6000.00, 0.00), (1700.00, 10.00), 2.50
M 15.10000 13 (4700.00, 6000.00, 0.00), (4700.00, 10.00), 2.50
M 15.10000 12 (1700.00, 6000.00, 0.00), (1700.00, 10.00), 2.50
M 15.10000 13 (4700.00, 6000.00, 0.00), (4700.00, 10.00), 2.50
M 15.10000 12 (1700.00, 6000.00, 0.00), (1700.00, 10.00), 2.50
M 15.10000 13 (4700.00, 6000.00, 0.00), (4700.00, 10.00), 2.50
M 15.10000 12 (1700.00, 6000.00, 0.00), (1700.00, 10.00), 2.50
M 15.10000 13 (4700.00, 6000.00, 0.00), (4700.00, 10.00), 2.50
M 15.10000 12 (1700.00, 6000.00, 0.00), (1700.00, 10.00), 2.50
M 15.10000 13 (4700.00, 6000.00, 0.00), (4700.00, 10.00), 2.50
s 48.433358333 _0_ MAC  --- -1 vectorbasedforward 9 [0 9000000 ffff0000 d18e] [energy 199988.094400 ei 9.546 es 0.000 et 2.160 er 0.200] ------- [60:9 -1:0 0 0] 
s 48.433358333 _1_ MAC  --- -1 vectorbasedforward 10 [0 a000000 ffff0000 d18e] [energy 199987.772800 ei 9.523 es 0.000 et 2.400 er 0.304] ------- [60:10 -1:0 0 0] 
s 48.433358333 _2_ MAC  --- -1 vectorbasedforward 11 [0 b000000 ffff0000 d18e] [energy 199984.982400 ei 9.522 es 0.000 et 5.280 er 0.216] ------- [60:11 -1:0 0 0] 
s 48.433358333 _3_ MAC  --- -1 vectorbasedforward 12 [0 c000000 ffff0000 d18e] [energy 199987.340800 ei 9.531 es 0.000 et 2.880 er 0.248] ------- [60:12 -1:0 0 0] 
s 48.433358333 _4_ MAC  --- -1 vectorbasedforward 13 [0 d000000 ffff0000 d18e] [energy 199987.019200 ei 9.509 es 0.000 et 3.120 er 0.352] ------- [60:13 -1:0 0 0] 
s 48.433358333 _5_ MAC  --- -1 vectorbasedforward 14 [0 e000000 ffff0000 d18e] [energy 199986.780800 ei 9.507 es 0.000 et 3.360 er 0.352] ------- [60:14 -1:0 0 0] 
s 48.433358333 _6_ MAC  --- -1 vectorbasedforward 15 [0 f000000 ffff0000 d18e] [energy 199986.587200 ei 9.517 es 0.000 et 3.600 er 0.296] ------- [60:15 -1:0 0 0] 
s 48.433358333 _7_ MAC  --- -1 vectorbasedforward 16 [0 10000000 ffff0000 d18e] [energy 199986.336000 ei 9.512 es 0.000 et 3.840 er 0.312] ------- [60:16 -1:0 0 0] 
s 48.433358333 _8_ MAC  --- -1 vectorbasedforward 17 [0 11000000 ffff0000 d18e] [energy 199986.097600 ei 9.510 es 0.000 et 4.080 er 0.312] ------- [60:17 -1:0 0 0] 
s 48.433358333 _9_ MAC  --- -1 vectorbasedforward 18 [0 12000000 ffff0000 d18e] [energy 199985.884800 ei 9.515 es 0.000 et 4.320 er 0.280] ------- [60:18 -1:0 0 0] 
s 48.433358333 _10_ MAC  --- -1 vectorbasedforward 19 [0 13000000 ffff0000 d18e] [energy 199985.633600 ei 9.510 es 0.000 et 4.560 er 0.296] ------- [60:19 -1:0 0 0] 
s 48.433358333 _11_ MAC  --- -1 vectorbasedforward 20 [0 14000000 ffff0000 d18e] [energy 199985.408000 ei 9.512 es 0.000 et 4.800 er 0.280] ------- [60:20 -1:0 0 0] 
M 15.10000 12 (1700.00, 6000.00, 0.00), (1700.00, 10.00), 2.50
M 15.10000 13 (4700.00, 6000.00, 0.00), (4700.00, 10.00), 2.50
r 49.196364351 _13_ MAC  --- -1 vectorbasedforward 6 [0 6000000 ffff0000 d18e] [energy 199989.674327 ei 9.718 es 0.000 et 0.000 er 0.608] ------- [60:6 -1:0 0 0] 
r 49.274276090 _12_ MAC  --- -1 vectorbasedforward 0 [0 0 ffff0000 d18e] [energy 199989.953145 ei 9.807 es 0.000 et 0.000 er 0.240] ------- [60:0 -1:0 0 0] 
r 49.589814768 _12_ MAC  --- -1 vectorbasedforward 3 [0 3000000 ffff0000 d18e] [energy 199989.813237 ei 9.851 es 0.000 et 0.000 er 0.336] ------- [60:3 -1:0 0 0] 
r 49.816953450 _13_ MAC  --- -1 vectorbasedforward 3 [0 3000000 ffff0000 d18e] [energy 199989.473409 ei 9.823 es 0.000 et 0.000 er 0.704] ------- [60:3 -1:0 0 0] 
M 15.10000 12 (1700.00, 6000.00, 0.00), (1700.00, 10.00), 2.50
M 15.10000 13 (4700.00, 6000.00, 0.00), (4700.00, 10.00), 2.50
r 50.227984836 _13_ MAC  --- -1 vectorbasedforward 9 [0 9000000 ffff0000 d18e] [energy 199989.276003 ei 9.876 es 0.000 et 0.000 er 0.848] ------- [60:9 -1:0 0 0] 
r 50.422976416 _2_ MAC  --- -1 vectorbasedforward 4 [0 4000000 ffff0000 d18e] [energy 199981.702605 ei 9.945 es 0.000 et 7.920 er 0.432] ------- [60:4 -1:0 0 0] 
r 50.422976416 _0_ MAC  --- -1 vectorbasedforward 4 [0 4000000 ffff0000 d18e] [energy 199985.304205 ei 9.976 es 0.000 et 4.320 er 0.400] ------- [60:4 -1:0 0 0] 
r 50.446976416 _9_ MAC  --- -1 vectorbasedforward 7 [0 7000000 ffff0000 d18e] [energy 199980.880205 ei 9.920 es 0.000 et 8.640 er 0.560] ------- [60:7 -1:0 0 0] 
r 50.446976416 _11_ MAC  --- -1 vectorbasedforward 7 [0 7000000 ffff0000 d18e] [energy 199979.926605 ei 9.913 es 0.000 et 9.600 er 0.560] ------- [60:7 -1:0 0 0] 
r 50.513018758 _12_ MAC  --- -1 vectorbasedforward 1 [0 1000000 ffff0000 d18e] [energy 199989.564596 ei 10.019 es 0.000 et 0.000 er 0.416] ------- [60:1 -1:0 0 0] 
r 50.516061389 _13_ MAC  --- -1 vectorbasedforward 7 [0 7000000 ffff0000 d18e] [energy 199989.115988 ei 9.908 es 0.000 et 0.000 er 0.976] ------- [60:7 -1:0 0 0] 
M 15.10000 12 (1700.00, 6000.00, 0.00), (1700.00, 10.00), 2.50
M 15.10000 13 (4700.00, 6000.00, 0.00), (4700.00, 10.00), 2.50
s 51.192987258 _2_ MAC  --- -1 vectorbasedforward 11 [0 b000000 ffff0000 5f12] [energy 199981.587200 ei 10.061 es 0.000 et 7.920 er 0.432] ------- [60:11 -1:0 0 0] 
M 15.10000 12 (1700.00, 6000.00, 0.00), (1700.00, 10.00), 2.50
M 15.10000 13 (4700.00, 6000.00, 0.00), (4700.00, 10.00), 2.50
r 52.614320591 _1_ MAC  --- -1 vectorbasedforward 2 [0 2000000 ffff0000 5f12] [energy 199984.222736 ei 10.369 es 0.000 et 4.800 er 0.608] ------- [60:2 -1:0 0 0] 
r 52.614320591 _5_ MAC  --- -1 vectorbasedforward 2 [0 2000000 ffff0000 5f12] [energy 199982.238736 ei 10.337 es 0.000 et 6.720 er 0.704] ------- [60:2 -1:0 0 0] 
M 15.10000 12 (1700.00, 6000.00, 0.00), (1700.00, 10.00), 2.50
M 15.10000 13 (4700.00, 6000.00, 0.00), (4700.00, 10.00), 2.50
r 53.166605341 _4_ MAC  --- -1 vectorbasedforward 2 [0 2000000 ffff0000 5f12] [energy 199982.605079 ei 10.451 es 0.000 et 6.240 er 0.704] ------- [60:2 -1:0 0 0] 
M 15.10000 12 (1700.00, 6000.00, 0.00), (1700.00, 10.00), 2.50
M 15.10000 13 (4700.00, 6000.00, 0.00), (4700.00, 10.00), 2.50
M 15.10000 12 (1700.00, 6000.00, 0.00), (1700.00, 10.00), 2.50
M 15.10000 13 (4700.00, 6000.00, 0.00), (4700.00, 10.00), 2.50
M 15.10000 12 (1700.00, 6000.00, 0.00), (1700.00, 10.00), 2.50
M 15.10000 13 (4700.00, 6000.00, 0.00), (4700.00, 10.00), 2.50
M 15.10000 12 (1700.00, 6000.00, 0.00), (1700.00, 10.00), 2.50
M 15.10000 13 (4700.00, 6000.00, 0.00), (4700.00, 10.00), 2.50
M 15.10000 12 (1700.00, 6000.00, 0.00), (1700.00, 10.00), 2.50
M 15.10000 13 (4700.00, 6000.00, 0.00), (4700.00, 10.00), 2.50
M 15.10000 12 (1700.00, 6000.00, 0.00), (1700.00, 10.00), 2.50
M 15.10000 13 (4700.00, 6000.00, 0.00), (4700.00, 10.00), 2.50
M 15.10000 12 (1700.00, 6000.00, 0.00), (1700.00, 10.00), 2.50
M 15.10000 13 (4700.00, 6000.00, 0.00), (4700.00, 10.00), 2.50
M 15.10000 12 (1700.00, 6000.00, 0.00), (1700.00, 10.00), 2.50
M 15.10000 13 (4700.00, 6000.00, 0.00), (4700.00, 10.00), 2.50
M 15.10000 12 (1700.00, 6000.00, 0.00), (1700.00, 10.00), 2.50
M 15.10000 13 (4700.00, 6000.00, 0.00), (4700.00, 10.00), 2.50
M 15.10000 12 (1700.00, 6000.00, 0.00), (1700.00, 10.00), 2.50
M 15.10000 13 (4700.00, 6000.00, 0.00), (4700.00, 10.00), 2.50
M 15.10000 12 (1700.00, 6000.00, 0.00), (1700.00, 10.00), 2.50
M 15.10000 13 (4700.00, 6000.00, 0.00), (4700.00, 10.00), 2.50
M 15.10000 12 (1700.00, 6000.00, 0.00), (1700.00, 10.00), 2.50
M 15.10000 13 (4700.00, 6000.00, 0.00), (4700.00, 10.00), 2.50
s 65.100025000 _0_ MAC  --- -1 vectorbasedforward 9 [0 9000000 ffff0000 13f2] [energy 199982.388800 ei 12.891 es 0.000 et 4.320 er 0.400] ------- [60:9 -1:0 0 0] 
s 65.100025000 _1_ MAC  --- -1 vectorbasedforward 10 [0 a000000 ffff0000 13f2] [energy 199981.745600 ei 12.846 es 0.000 et 4.800 er 0.608] ------- [60:10 -1:0 0 0] 
s 65.100025000 _2_ MAC  --- -1 vectorbasedforward 11 [0 b000000 ffff0000 13f2] [energy 199976.164800 ei 12.843 es 0.000 et 10.560 er 0.432] ------- [60:11 -1:0 0 0] 
s 65.100025000 _3_ MAC  --- -1 vectorbasedforward 12 [0 c000000 ffff0000 13f2] [energy 199980.881600 ei 12.862 es 0.000 et 5.760 er 0.496] ------- [60:12 -1:0 0 0] 
s 65.100025000 _4_ MAC  --- -1 vectorbasedforward 13 [0 d000000 ffff0000 13f2] [energy 199980.238400 ei 12.818 es 0.000 et 6.240 er 0.704] ------- [60:13 -1:0 0 0] 
s 65.100025000 _5_ MAC  --- -1 vectorbasedforward 14 [0 e000000 ffff0000 13f2] [energy 199979.761600 ei 12.814 es 0.000 et 6.720 er 0.704] ------- [60:14 -1:0 0 0] 
s 65.100025000 _6_ MAC  --- -1 vectorbasedforward 15 [0 f000000 ffff0000 13f2] [energy 199979.374400 ei 12.834 es 0.000 et 7.200 er 0.592] ------- [60:15 -1:0 0 0] 
s 65.100025000 _7_ MAC  --- -1 vectorbasedforward 16 [0 10000000 ffff0000 13f2] [energy 199978.872000 ei 12.824 es 0.000 et 7.680 er 0.624] ------- [60:16 -1:0 0 0] 
s 65.100025000 _8_ MAC  --- -1 vectorbasedforward 17 [0 11000000 ffff0000 13f2] [energy 199978.395200 ei 12.821 es 0.000 et 8.160 er 0.624] ------- [60:17 -1:0 0 0] 
s 65.100025000 _9_ MAC  --- -1 vectorbasedforward 18 [0 12000000 ffff0000 13f2] [energy 199977.969600 ei 12.830 es 0.000 et 8.640 er 0.560] ------- [60:18 -1:0 0 0] 
s 65.100025000 _10_ MAC  --- -1 vectorbasedforward 19 [0 13000000 ffff0000 13f2] [energy 199977.467200 ei 12.821 es 0.000 et 9.120 er 0.592] ------- [60:19 -1:0 0 0] 
s 65.100025000 _11_ MAC  --- -1 vectorbasedforward 20 [0 14000000 ffff0000 13f2] [energy 199977.016000 ei 12.824 es 0.000 et 9.600 er 0.560] ------- [60:20 -1:0 0 0] 
r 65.836691627 _13_ MAC  --- -1 vectorbasedforward 6 [0 6000000 ffff0000 13f2] [energy 199985.955862 ei 12.948 es 0.000 et 0.000 er 1.096] ------- [60:6 -1:0 0 0] 
r 65.919056128 _12_ MAC  --- -1 vectorbasedforward 0 [0 0 ffff0000 13f2] [energy 199986.425789 ei 13.086 es 0.000 et 0.000 er 0.488] ------- [60:0 -1:0 0 0] 
M 15.10000 12 (1700.00, 6000.00, 0.00), (1700.00, 10.00), 2.50
M 15.10000 13 (4700.00, 6000.00, 0.00), (4700.00, 10.00), 2.50
r 66.240720573 _12_ MAC  --- -1 vectorbasedforward 3 [0 3000000 ffff0000 13f2] [energy 199986.284656 ei 13.131 es 0.000 et 0.000 er 0.584] ------- [60:3 -1:0 0 0] 
r 66.470670901 _13_ MAC  --- -1 vectorbasedforward 3 [0 3000000 ffff0000 13f2] [energy 199985.752266 ei 13.056 es 0.000 et 0.000 er 1.192] ------- [60:3 -1:0 0 0] 
r 66.884570287 _13_ MAC  --- -1 vectorbasedforward 9 [0 9000000 ffff0000 13f2] [energy 199985.554286 ei 13.110 es 0.000 et 0.000 er 1.336] ------- [60:9 -1:0 0 0] 
M 15.10000 12 (1700.00, 6000.00, 0.00), (1700.00, 10.00), 2.50
M 15.10000 13 (4700.00, 6000.00, 0.00), (4700.00, 10.00), 2.50
r 67.089643083 _2_ MAC  --- -1 vectorbasedforward 4 [0 4000000 ffff0000 13f2] [energy 199972.951671 ei 13.200 es 0.000 et 13.200 er 0.648] ------- [60:4 -1:0 0 0] 
r 67.089643083 _0_ MAC  --- -1 vectorbasedforward 4 [0 4000000 ffff0000 13f2] [energy 199979.665271 ei 13.255 es 0.000 et 6.480 er 0.600] ------- [60:4 -1:0 0 0] 
r 67.113643083 _9_ MAC  --- -1 vectorbasedforward 7 [0 7000000 ffff0000 13f2] [energy 199973.031671 ei 13.168 es 0.000 et 12.960 er 0.840] ------- [60:7 -1:0 0 0] 
r 67.113643083 _11_ MAC  --- -1 vectorbasedforward 7 [0 7000000 ffff0000 13f2] [energy 199971.601271 ei 13.159 es 0.000 et 14.400 er 0.840] ------- [60:7 -1:0 0 0] 
r 67.152685318 _12_ MAC  --- -1 vectorbasedforward 1 [0 1000000 ffff0000 13f2] [energy 199986.038263 ei 13.298 es 0.000 et 0.000 er 0.664] ------- [60:1 -1:0 0 0] 
r 67.155098157 _13_ MAC  --- -1 vectorbasedforward 7 [0 7000000 ffff0000 13f2] [energy 199985.397780 ei 13.138 es 0.000 et 0.000 er 1.464] ------- [60:7 -1:0 0 0] 
s 67.859653924 _2_ MAC  --- -1 vectorbasedforward 11 [0 b000000 ffff0000 dab3] [energy 199972.951671 ei 13.200 es 0.000 et 13.200 er 0.648] ------- [60:11 -1:0 0 0] 
M 15.10000 12 (1700.00, 6000.00, 0.00), (1700.00, 10.00), 2.50
M 15.10000 13 (4700.00, 6000.00, 0.00), (4700.00, 10.00), 2.50
M 15.10000 12 (1700.00, 6000.00, 0.00), (1700.00, 10.00), 2.50
M 15.10000 13 (4700.00, 6000.00, 0.00), (4700.00, 10.00), 2.50
r 69.280987258 _1_ MAC  --- -1 vectorbasedforward 2 [0 2000000 ffff0000 dab3] [energy 199978.262203 ei 13.626 es 0.000 et 7.200 er 0.912] ------- [60:2 -1:0 0 0] 
r 69.280987258 _5_ MAC  --- -1 vectorbasedforward 2 [0 2000000 ffff0000 dab3] [energy 199975.286203 ei 13.578 es 0.000 et 10.080 er 1.056] ------- [60:2 -1:0 0 0] 
r 69.833272007 _4_ MAC  --- -1 vectorbasedforward 2 [0 2000000 ffff0000 dab3] [energy 199975.890946 ei 13.693 es 0.000 et 9.360 er 1.056] ------- [60:2 -1:0 0 0] 
M 15.10000 12 (1700.00, 6000.00, 0.00), (1700.00, 10.00), 2.50
M 15.10000 13 (4700.00, 6000.00, 0.00), (4700.00, 10.00), 2.50
M 15.10000 12 (1700.00, 6000.00, 0.00), (1700.00, 10.00), 2.50
M 15.10000 13 (4700.00, 6000.00, 0.00), (4700.00, 10.00), 2.50
M 15.10000 12 (1700.00, 6000.00, 0.00), (1700.00, 10.00), 2.50
M 15.10000 13 (4700.00, 6000.00, 0.00), (4700.00, 10.00), 2.50
M 15.10000 12 (1700.00, 6000.00, 0.00), (1700.00, 10.00), 2.50
M 15.10000 13 (4700.00, 6000.00, 0.00), (4700.00, 10.00), 2.50
M 15.10000 12 (1700.00, 6000.00, 0.00), (1700.00, 10.00), 2.50
M 15.10000 13 (4700.00, 6000.00, 0.00), (4700.00, 10.00), 2.50
M 15.10000 12 (1700.00, 6000.00, 0.00), (1700.00, 10.00), 2.50
M 15.10000 13 (4700.00, 6000.00, 0.00), (4700.00, 10.00), 2.50
M 15.10000 12 (1700.00, 6000.00, 0.00), (1700.00, 10.00), 2.50
M 15.10000 13 (4700.00, 6000.00, 0.00), (4700.00, 10.00), 2.50
M 15.10000 12 (1700.00, 6000.00, 0.00), (1700.00, 10.00), 2.50
M 15.10000 13 (4700.00, 6000.00, 0.00), (4700.00, 10.00), 2.50
M 15.10000 12 (1700.00, 6000.00, 0.00), (1700.00, 10.00), 2.50
M 15.10000 13 (4700.00, 6000.00, 0.00), (4700.00, 10.00), 2.50
M 15.10000 12 (1700.00, 6000.00, 0.00), (1700.00, 10.00), 2.50
M 15.10000 13 (4700.00, 6000.00, 0.00), (4700.00, 10.00), 2.50
M 15.10000 12 (1700.00, 6000.00, 0.00), (1700.00, 10.00), 2.50
M 15.10000 13 (4700.00, 6000.00, 0.00), (4700.00, 10.00), 2.50
M 15.10000 12 (1700.00, 6000.00, 0.00), (1700.00, 10.00), 2.50
M 15.10000 13 (4700.00, 6000.00, 0.00), (4700.00, 10.00), 2.50
s 81.766691667 _0_ MAC  --- -1 vectorbasedforward 9 [0 9000000 ffff0000 be9c] [energy 199976.883200 ei 16.037 es 0.000 et 6.480 er 0.600] ------- [60:9 -1:0 0 0] 
s 81.766691667 _1_ MAC  --- -1 vectorbasedforward 10 [0 a000000 ffff0000 be9c] [energy 199975.918400 ei 15.970 es 0.000 et 7.200 er 0.912] ------- [60:10 -1:0 0 0] 
s 81.766691667 _2_ MAC  --- -1 vectorbasedforward 11 [0 b000000 ffff0000 be9c] [energy 199967.547200 ei 15.965 es 0.000 et 15.840 er 0.648] ------- [60:11 -1:0 0 0] 
s 81.766691667 _3_ MAC  --- -1 vectorbasedforward 12 [0 c000000 ffff0000 be9c] [energy 199974.622400 ei 15.994 es 0.000 et 8.640 er 0.744] ------- [60:12 -1:0 0 0] 
s 81.766691667 _4_ MAC  --- -1 vectorbasedforward 13 [0 d000000 ffff0000 be9c] [energy 199973.657600 ei 15.926 es 0.000 et 9.360 er 1.056] ------- [60:13 -1:0 0 0] 
s 81.766691667 _5_ MAC  --- -1 vectorbasedforward 14 [0 e000000 ffff0000 be9c] [energy 199972.942400 ei 15.922 es 0.000 et 10.080 er 1.056] ------- [60:14 -1:0 0 0] 
s 81.766691667 _6_ MAC  --- -1 vectorbasedforward 15 [0 f000000 ffff0000 be9c] [energy 199972.361600 ei 15.950 es 0.000 et 10.800 er 0.888] ------- [60:15 -1:0 0 0] 
s 81.766691667 _7_ MAC  --- -1 vectorbasedforward 16 [0 10000000 ffff0000 be9c] [energy 199971.608000 ei 15.936 es 0.000 et 11.520 er 0.936] ------- [60:16 -1:0 0 0] 
s 81.766691667 _8_ MAC  --- -1 vectorbasedforward 17 [0 11000000 ffff0000 be9c] [energy 199970.892800 ei 15.931 es 0.000 et 12.240 er 0.936] ------- [60:17 -1:0 0 0] 
s 81.766691667 _9_ MAC  --- -1 vectorbasedforward 18 [0 12000000 ffff0000 be9c] [energy 199970.254400 ei 15.946 es 0.000 et 12.960 er 0.840] ------- [60:18 -1:0 0 0] 
s 81.766691667 _10_ MAC  --- -1 vectorbasedforward 19 [0 13000000 ffff0000 be9c] [energy 199969.500800 ei 15.931 es 0.000 et 13.680 er 0.888] ------- [60:19 -1:0 0 0] 
s 81.766691667 _11_ MAC  --- -1 vectorbasedforward 20 [0 14000000 ffff0000 be9c] [energy 199968.824000 ei 15.936 es 0.000 et 14.400 er 0.840] ------- [60:20 -1:0 0 0] 
M 15.10000 12 (1700.00, 6000.00, 0.00), (1700.00, 10.00), 2.50
M 15.10000 13 (4700.00, 6000.00, 0.00), (4700.00, 10.00), 2.50
r 82.477150750 _13_ MAC  --- -1 vectorbasedforward 6 [0 6000000 ffff0000 be9c] [energy 199982.237370 ei 16.179 es 0.000 et 0.000 er 1.584] ------- [60:6 -1:0 0 0] 
r 82.564239533 _12_ MAC  --- -1 vectorbasedforward 0 [0 0 ffff0000 be9c] [energy 199982.898352 ei 16.366 es 0.000 et 0.000 er 0.736] ------- [60:0 -1:0 0 0] 
r 82.892134739 _12_ MAC  --- -1 vectorbasedforward 3 [0 3000000 ffff0000 be9c] [energy 199982.755973 ei 16.412 es 0.000 et 0.000 er 0.832] ------- [60:3 -1:0 0 0] 
M 15.10000 12 (1700.00, 6000.00, 0.00), (1700.00, 10.00), 2.50
M 15.10000 13 (4700.00, 6000.00, 0.00), (4700.00, 10.00), 2.50
r 83.124866921 _13_ MAC  --- -1 vectorbasedforward 3 [0 3000000 ffff0000 be9c] [energy 199982.031027 ei 16.289 es 0.000 et 0.000 er 1.680] ------- [60:3 -1:0 0 0] 
r 83.541566598 _13_ MAC  --- -1 vectorbasedforward 9 [0 9000000 ffff0000 be9c] [energy 199981.832487 ei 16.344 es 0.000 et 0.000 er 1.824] ------- [60:9 -1:0 0 0] 
r 83.756309750 _2_ MAC  --- -1 vectorbasedforward 4 [0 4000000 ffff0000 be9c] [energy 199964.200738 ei 16.455 es 0.000 et 18.480 er 0.864] ------- [60:4 -1:0 0 0] 
r 83.756309750 _0_ MAC  --- -1 vectorbasedforward 4 [0 4000000 ffff0000 be9c] [energy 199974.026338 ei 16.534 es 0.000 et 8.640 er 0.800] ------- [60:4 -1:0 0 0] 
r 83.780309750 _9_ MAC  --- -1 vectorbasedforward 7 [0 7000000 ffff0000 be9c] [energy 199965.183138 ei 16.417 es 0.000 et 17.280 er 1.120] ------- [60:7 -1:0 0 0] 
r 83.780309750 _11_ MAC  --- -1 vectorbasedforward 7 [0 7000000 ffff0000 be9c] [energy 199963.275938 ei 16.404 es 0.000 et 19.200 er 1.120] ------- [60:7 -1:0 0 0] 
r 83.792373772 _12_ MAC  --- -1 vectorbasedforward 1 [0 1000000 ffff0000 be9c] [energy 199982.511925 ei 16.576 es 0.000 et 0.000 er 0.912] ------- [60:1 -1:0 0 0] 
r 83.794139238 _13_ MAC  --- -1 vectorbasedforward 7 [0 7000000 ffff0000 be9c] [energy 199981.679572 ei 16.368 es 0.000 et 0.000 er 1.952] ------- [60:7 -1:0 0 0] 
M 15.10000 12 (1700.00, 6000.00, 0.00), (1700.00, 10.00), 2.50
M 15.10000 13 (4700.00, 6000.00, 0.00), (4700.00, 10.00), 2.50
s 84.526320591 _2_ MAC  --- -1 vectorbasedforward 11 [0 b000000 ffff0000 855e] [energy 199964.152000 ei 16.504 es 0.000 et 18.480 er 0.864] ------- [60:11 -1:0 0 0] 
M 15.10000 12 (1700.00, 6000.00, 0.00), (1700.00, 10.00), 2.50
M 15.10000 13 (4700.00, 6000.00, 0.00), (4700.00, 10.00), 2.50
r 85.947653924 _1_ MAC  --- -1 vectorbasedforward 2 [0 2000000 ffff0000 855e] [energy 199972.301669 ei 16.882 es 0.000 et 9.600 er 1.216] ------- [60:2 -1:0 0 0] 
r 85.947653924 _5_ MAC  --- -1 vectorbasedforward 2 [0 2000000 ffff0000 855e] [energy 199968.333669 ei 16.818 es 0.000 et 13.440 er 1.408] ------- [60:2 -1:0 0 0] 
M 15.10000 12 (1700.00, 6000.00, 0.00), (1700.00, 10.00), 2.50
M 15.10000 13 (4700.00, 6000.00, 0.00), (4700.00, 10.00), 2.50
r 86.499938674 _4_ MAC  --- -1 vectorbasedforward 2 [0 2000000 ffff0000 855e] [energy 199969.176812 ei 16.935 es 0.000 et 12.480 er 1.408] ------- [60:2 -1:0 0 0] 
M 15.10000 12 (1700.00, 6000.00, 0.00), (1700.00, 10.00), 2.50
M 15.10000 13 (4700.00, 6000.00, 0.00), (4700.00, 10.00), 2.50
M 15.10000 12 (1700.00, 6000.00, 0.00), (1700.00, 10.00), 2.50
M 15.10000 13 (4700.00, 6000.00, 0.00), (4700.00, 10.00), 2.50
M 15.10000 12 (1700.00, 6000.00, 0.00), (1700.00, 10.00), 2.50
M 15.10000 13 (4700.00, 6000.00, 0.00), (4700.00, 10.00), 2.50
M 15.10000 12 (1700.00, 6000.00, 0.00), (1700.00, 10.00), 2.50
M 15.10000 13 (4700.00, 6000.00, 0.00), (4700.00, 10.00), 2.50
M 15.10000 12 (1700.00, 6000.00, 0.00), (1700.00, 10.00), 2.50
M 15.10000 13 (4700.00, 6000.00, 0.00), (4700.00, 10.00), 2.50
M 15.10000 12 (1700.00, 6000.00, 0.00), (1700.00, 10.00), 2.50
M 15.10000 13 (4700.00, 6000.00, 0.00), (4700.00, 10.00), 2.50
M 15.10000 12 (1700.00, 6000.00, 0.00), (1700.00, 10.00), 2.50
M 15.10000 13 (4700.00, 6000.00, 0.00), (4700.00, 10.00), 2.50
M 15.10000 12 (1700.00, 6000.00, 0.00), (1700.00, 10.00), 2.50
M 15.10000 13 (4700.00, 6000.00, 0.00), (4700.00, 10.00), 2.50
M 15.10000 12 (1700.00, 6000.00, 0.00), (1700.00, 10.00), 2.50
M 15.10000 13 (4700.00, 6000.00, 0.00), (4700.00, 10.00), 2.50
M 15.10000 12 (1700.00, 6000.00, 0.00), (1700.00, 10.00), 2.50
M 15.10000 13 (4700.00, 6000.00, 0.00), (4700.00, 10.00), 2.50
M 15.10000 12 (1700.00, 6000.00, 0.00), (1700.00, 10.00), 2.50
M 15.10000 13 (4700.00, 6000.00, 0.00), (4700.00, 10.00), 2.50
M 15.10000 12 (1700.00, 6000.00, 0.00), (1700.00, 10.00), 2.50
M 15.10000 13 (4700.00, 6000.00, 0.00), (4700.00, 10.00), 2.50
s 98.433358333 _0_ MAC  --- -1 vectorbasedforward 9 [0 9000000 ffff0000 6947] [energy 199971.177600 ei 19.382 es 0.000 et 8.640 er 0.800] ------- [60:9 -1:0 0 0] 
s 98.433358333 _1_ MAC  --- -1 vectorbasedforward 10 [0 a000000 ffff0000 6947] [energy 199969.891200 ei 19.293 es 0.000 et 9.600 er 1.216] ------- [60:10 -1:0 0 0] 
s 98.433358333 _2_ MAC  --- -1 vectorbasedforward 11 [0 b000000 ffff0000 6947] [energy 199958.729600 ei 19.286 es 0.000 et 21.120 er 0.864] ------- [60:11 -1:0 0 0] 
s 98.433358333 _3_ MAC  --- -1 vectorbasedforward 12 [0 c000000 ffff0000 6947] [energy 199968.163200 ei 19.325 es 0.000 et 11.520 er 0.992] ------- [60:12 -1:0 0 0] 
s 98.433358333 _4_ MAC  --- -1 vectorbasedforward 13 [0 d000000 ffff0000 6947] [energy 199966.876800 ei 19.235 es 0.000 et 12.480 er 1.408] ------- [60:13 -1:0 0 0] 
s 98.433358333 _5_ MAC  --- -1 vectorbasedforward 14 [0 e000000 ffff0000 6947] [energy 199965.923200 ei 19.229 es 0.000 et 13.440 er 1.408] ------- [60:14 -1:0 0 0] 
s 98.433358333 _6_ MAC  --- -1 vectorbasedforward 15 [0 f000000 ffff0000 6947] [energy 199965.148800 ei 19.267 es 0.000 et 14.400 er 1.184] ------- [60:15 -1:0 0 0] 
s 98.433358333 _7_ MAC  --- -1 vectorbasedforward 16 [0 10000000 ffff0000 6947] [energy 199964.144000 ei 19.248 es 0.000 et 15.360 er 1.248] ------- [60:16 -1:0 0 0] 
s 98.433358333 _8_ MAC  --- -1 vectorbasedforward 17 [0 11000000 ffff0000 6947] [energy 199963.190400 ei 19.242 es 0.000 et 16.320 er 1.248] ------- [60:17 -1:0 0 0] 
s 98.433358333 _9_ MAC  --- -1 vectorbasedforward 18 [0 12000000 ffff0000 6947] [energy 199962.339200 ei 19.261 es 0.000 et 17.280 er 1.120] ------- [60:18 -1:0 0 0] 