n -t * -s 0  -x 1000 -y 5000 -Z 0 -z 1000  -v circle -c green
n -t * -s 1  -x 1000 -y 3000 -Z 0 -z 1000  -v circle -c green
n -t * -s 2  -x 1000 -y 1000 -Z 0 -z 1000  -v circle -c green
n -t * -s 3  -x 3000 -y 5000 -Z 0 -z 1000  -v circle -c green
n -t * -s 4  -x 3000 -y 3000 -Z 0 -z 1000  -v circle -c green
n -t * -s 5  -x 3000 -y 1000 -Z 0 -z 1000  -v circle -c green
n -t * -s 6  -x 5000 -y 5000 -Z 0 -z 1000  -v circle -c green
n -t * -s 7  -x 5000 -y 3000 -Z 0 -z 1000  -v circle -c green
n -t * -s 8  -x 5000 -y 1000 -Z 0 -z 1000  -v circle -c green
n -t * -s 9  -x 7000 -y 5000 -Z 0 -z 1000  -v circle -c green
n -t * -s 10  -x 7000 -y 3000 -Z 0 -z 1000  -v circle -c green
n -t * -s 11  -x 7000 -y 1000 -Z 0 -z 1000  -v circle -c green
n -t * -s 12  -x 1700 -y 6000 -Z 0 -z 1000  -v circle -c green
n -t * -s 13  -x 4700 -y 6000 -Z 0 -z 1000  -v circle -c green
V -t * -v 1.0a5 -a 0
W -t * -x 10000 -y 6000
A -t * -n 1 -p 0 -o 0xffffffff -c 31 -a 1
A -t * -h 1 -m 2147483647 -s 0
n -t 15.100000 -s 12 -x 1700.000000 -y 6000.000000 -U 0.000000 -V -2.500000 -T 2396.000000
n -t 15.100000 -s 13 -x 4700.000000 -y 6000.000000 -U 0.000000 -V -2.500000 -T 2396.000000
+ -t 15.100025000 -s 6 -d -1 -p vectorbasedforward -e 309 -c 2 -a 0 -i 1 -k MAC 
- -t 15.100025000 -s 6 -d -1 -p vectorbasedforward -e 309 -c 2 -a 0 -i 1 -k MAC
n -t 15.100025000 -s 6 -S COLOR -c red -o yellow
h -t 15.100025000 -s 6 -d -1 -p vectorbasedforward -e 309 -c 2 -a 0 -i 1 -k MAC -R 3000.000000
v -t 15.100025000 -e sim_annotation 15.100025000 1 node 6 sendout packet (vectorbasedforward) 1
+ -t 17.100025000 -s 1 -d -1 -p vectorbasedforward -e 309 -c 2 -a 0 -i 2 -k MAC 
- -t 17.100025000 -s 1 -d -1 -p vectorbasedforward -e 309 -c 2 -a 0 -i 2 -k MAC
n -t 17.100025000 -s 1 -S COLOR -c red -o yellow
h -t 17.100025000 -s 1 -d -1 -p vectorbasedforward -e 309 -c 2 -a 0 -i 2 -k MAC -R 3000.000000
v -t 17.100025000 -e sim_annotation 17.100025000 2 node 1 sendout packet (vectorbasedforward) 2
n -t 18.268045394 -s 13 -S COLOR -c red -o yellow
r -t 18.268045394 -s 13 -d -1 -p vectorbasedforward -e 300 -c 2 -a 0 -i 1 -k MAC -R 3000.000000
v -t 18.268045394 -e sim_annotation 18.268045394 3 node 13 receive packet(vectorbasedforward) 1
n -t 18.905358333 -s 3 -S COLOR -c red -o yellow
r -t 18.905358333 -s 3 -d -1 -p vectorbasedforward -e 300 -c 2 -a 0 -i 1 -k MAC -R 3000.000000
v -t 18.905358333 -e sim_annotation 18.905358333 4 node 3 receive packet(vectorbasedforward) 1
n -t 18.905358333 -s 7 -S COLOR -c red -o yellow
r -t 18.905358333 -s 7 -d -1 -p vectorbasedforward -e 300 -c 2 -a 0 -i 1 -k MAC -R 3000.000000
v -t 18.905358333 -e sim_annotation 18.905358333 5 node 7 receive packet(vectorbasedforward) 1
+ -t 18.905358333 -s 7 -d -1 -p vectorbasedforward -e 309 -c 2 -a 0 -i 3 -k MAC 
- -t 18.905358333 -s 7 -d -1 -p vectorbasedforward -e 309 -c 2 -a 0 -i 3 -k MAC
n -t 18.905358333 -s 7 -S COLOR -c red -o yellow
h -t 18.905358333 -s 7 -d -1 -p vectorbasedforward -e 309 -c 2 -a 0 -i 3 -k MAC -R 3000.000000
v -t 18.905358333 -e sim_annotation 18.905358333 6 node 7 sendout packet (vectorbasedforward) 3
n -t 18.905358333 -s 9 -S COLOR -c red -o yellow
r -t 18.905358333 -s 9 -d -1 -p vectorbasedforward -e 300 -c 2 -a 0 -i 1 -k MAC -R 3000.000000
v -t 18.905358333 -e sim_annotation 18.905358333 7 node 9 receive packet(vectorbasedforward) 1
+ -t 19.100025000 -s 8 -d -1 -p vectorbasedforward -e 309 -c 2 -a 0 -i 5 -k MAC 
- -t 19.100025000 -s 8 -d -1 -p vectorbasedforward -e 309 -c 2 -a 0 -i 5 -k MAC
n -t 19.100025000 -s 8 -S COLOR -c red -o yellow
h -t 19.100025000 -s 8 -d -1 -p vectorbasedforward -e 309 -c 2 -a 0 -i 5 -k MAC -R 3000.000000
v -t 19.100025000 -e sim_annotation 19.100025000 8 node 8 sendout packet (vectorbasedforward) 5
n -t 19.457643083 -s 10 -S COLOR -c red -o yellow
r -t 19.457643083 -s 10 -d -1 -p vectorbasedforward -e 300 -c 2 -a 0 -i 1 -k MAC -R 3000.000000
v -t 19.457643083 -e sim_annotation 19.457643083 9 node 10 receive packet(vectorbasedforward) 1
n -t 20.905358333 -s 0 -S COLOR -c red -o yellow
r -t 20.905358333 -s 0 -d -1 -p vectorbasedforward -e 300 -c 2 -a 0 -i 2 -k MAC -R 3000.000000
v -t 20.905358333 -e sim_annotation 20.905358333 10 node 0 receive packet(vectorbasedforward) 2
n -t 20.905358333 -s 2 -S COLOR -c red -o yellow
r -t 20.905358333 -s 2 -d -1 -p vectorbasedforward -e 300 -c 2 -a 0 -i 2 -k MAC -R 3000.000000
v -t 20.905358333 -e sim_annotation 20.905358333 11 node 2 receive packet(vectorbasedforward) 2
+ -t 20.905358333 -s 2 -d -1 -p vectorbasedforward -e 309 -c 2 -a 0 -i 4 -k MAC 
- -t 20.905358333 -s 2 -d -1 -p vectorbasedforward -e 309 -c 2 -a 0 -i 4 -k MAC
n -t 20.905358333 -s 2 -S COLOR -c red -o yellow
h -t 20.905358333 -s 2 -d -1 -p vectorbasedforward -e 309 -c 2 -a 0 -i 4 -k MAC -R 3000.000000
v -t 20.905358333 -e sim_annotation 20.905358333 12 node 2 sendout packet (vectorbasedforward) 4
n -t 22.710691667 -s 6 -S COLOR -c red -o yellow
r -t 22.710691667 -s 6 -d -1 -p vectorbasedforward -e 300 -c 2 -a 0 -i 3 -k MAC -R 3000.000000
v -t 22.710691667 -e sim_annotation 22.710691667 13 node 6 receive packet(vectorbasedforward) 3
r -t 23.262976416 -s 9 -d -1 -p vectorbasedforward -e 300 -c 2 -a 0 -i 3 -k MAC -R 3000.000000
v -t 23.262976416 -e sim_annotation 23.262976416 14 node 9 receive packet(vectorbasedforward) 3
+ -t 23.262976416 -s 9 -d -1 -p vectorbasedforward -e 309 -c 2 -a 0 -i 7 -k MAC 
- -t 23.262976416 -s 9 -d -1 -p vectorbasedforward -e 309 -c 2 -a 0 -i 7 -k MAC
n -t 23.262976416 -s 9 -S COLOR -c red -o yellow
h -t 23.262976416 -s 9 -d -1 -p vectorbasedforward -e 309 -c 2 -a 0 -i 7 -k MAC -R 3000.000000
v -t 23.262976416 -e sim_annotation 23.262976416 15 node 9 sendout packet (vectorbasedforward) 7
n -t 24.710691667 -s 1 -S COLOR -c red -o yellow
r -t 24.710691667 -s 1 -d -1 -p vectorbasedforward -e 300 -c 2 -a 0 -i 4 -k MAC -R 3000.000000
v -t 24.710691667 -e sim_annotation 24.710691667 16 node 1 receive packet(vectorbasedforward) 4
+ -t 25.100025000 -s 5 -d -1 -p vectorbasedforward -e 309 -c 2 -a 0 -i 10 -k MAC 
- -t 25.100025000 -s 5 -d -1 -p vectorbasedforward -e 309 -c 2 -a 0 -i 10 -k MAC
n -t 25.100025000 -s 5 -S COLOR -c red -o yellow
h -t 25.100025000 -s 5 -d -1 -p vectorbasedforward -e 309 -c 2 -a 0 -i 10 -k MAC -R 3000.000000
v -t 25.100025000 -e sim_annotation 25.100025000 17 node 5 sendout packet (vectorbasedforward) 10
r -t 27.068309750 -s 6 -d -1 -p vectorbasedforward -e 300 -c 2 -a 0 -i 7 -k MAC -R 3000.000000
v -t 27.068309750 -e sim_annotation 27.068309750 18 node 6 receive packet(vectorbasedforward) 7
r -t 27.068309750 -s 10 -d -1 -p vectorbasedforward -e 300 -c 2 -a 0 -i 7 -k MAC -R 3000.000000
v -t 27.068309750 -e sim_annotation 27.068309750 19 node 10 receive packet(vectorbasedforward) 7
+ -t 27.068309750 -s 10 -d -1 -p vectorbasedforward -e 309 -c 2 -a 0 -i 9 -k MAC 
- -t 27.068309750 -s 10 -d -1 -p vectorbasedforward -e 309 -c 2 -a 0 -i 9 -k MAC
n -t 27.068309750 -s 10 -S COLOR -c red -o yellow
h -t 27.068309750 -s 10 -d -1 -p vectorbasedforward -e 309 -c 2 -a 0 -i 9 -k MAC -R 3000.000000
v -t 27.068309750 -e sim_annotation 27.068309750 20 node 10 sendout packet (vectorbasedforward) 9
r -t 27.401589960 -s 13 -d -1 -p vectorbasedforward -e 300 -c 2 -a 0 -i 7 -k MAC -R 3000.000000
v -t 27.401589960 -e sim_annotation 27.401589960 21 node 13 receive packet(vectorbasedforward) 7
n -t 28.905358333 -s 4 -S COLOR -c red -o yellow
r -t 28.905358333 -s 4 -d -1 -p vectorbasedforward -e 300 -c 2 -a 0 -i 10 -k MAC -R 3000.000000
v -t 28.905358333 -e sim_annotation 28.905358333 22 node 4 receive packet(vectorbasedforward) 10
+ -t 28.905358333 -s 4 -d -1 -p vectorbasedforward -e 309 -c 2 -a 0 -i 8 -k MAC 
- -t 28.905358333 -s 4 -d -1 -p vectorbasedforward -e 309 -c 2 -a 0 -i 8 -k MAC
n -t 28.905358333 -s 4 -S COLOR -c red -o yellow
h -t 28.905358333 -s 4 -d -1 -p vectorbasedforward -e 309 -c 2 -a 0 -i 8 -k MAC -R 3000.000000
v -t 28.905358333 -e sim_annotation 28.905358333 23 node 4 sendout packet (vectorbasedforward) 8
r -t 28.905358333 -s 2 -d -1 -p vectorbasedforward -e 300 -c 2 -a 0 -i 10 -k MAC -R 3000.000000
v -t 28.905358333 -e sim_annotation 28.905358333 24 node 2 receive packet(vectorbasedforward) 10
n -t 28.905358333 -s 8 -S COLOR -c red -o yellow
r -t 28.905358333 -s 8 -d -1 -p vectorbasedforward -e 300 -c 2 -a 0 -i 10 -k MAC -R 3000.000000
v -t 28.905358333 -e sim_annotation 28.905358333 25 node 8 receive packet(vectorbasedforward) 10
r -t 29.457643083 -s 1 -d -1 -p vectorbasedforward -e 300 -c 2 -a 0 -i 10 -k MAC -R 3000.000000
v -t 29.457643083 -e sim_annotation 29.457643083 26 node 1 receive packet(vectorbasedforward) 10
r -t 30.873643083 -s 9 -d -1 -p vectorbasedforward -e 300 -c 2 -a 0 -i 9 -k MAC -R 3000.000000
v -t 30.873643083 -e sim_annotation 30.873643083 27 node 9 receive packet(vectorbasedforward) 9
n -t 30.873643083 -s 11 -S COLOR -c red -o yellow
r -t 30.873643083 -s 11 -d -1 -p vectorbasedforward -e 300 -c 2 -a 0 -i 9 -k MAC -R 3000.000000
v -t 30.873643083 -e sim_annotation 30.873643083 28 node 11 receive packet(vectorbasedforward) 9
r -t 32.710691667 -s 3 -d -1 -p vectorbasedforward -e 300 -c 2 -a 0 -i 8 -k MAC -R 3000.000000
v -t 32.710691667 -e sim_annotation 32.710691667 29 node 3 receive packet(vectorbasedforward) 8
+ -t 32.710691667 -s 3 -d -1 -p vectorbasedforward -e 309 -c 2 -a 0 -i 6 -k MAC 
- -t 32.710691667 -s 3 -d -1 -p vectorbasedforward -e 309 -c 2 -a 0 -i 6 -k MAC
n -t 32.710691667 -s 3 -S COLOR -c red -o yellow
h -t 32.710691667 -s 3 -d -1 -p vectorbasedforward -e 309 -c 2 -a 0 -i 6 -k MAC -R 3000.000000
v -t 32.710691667 -e sim_annotation 32.710691667 30 node 3 sendout packet (vectorbasedforward) 6
r -t 32.710691667 -s 1 -d -1 -p vectorbasedforward -e 300 -c 2 -a 0 -i 8 -k MAC -R 3000.000000
v -t 32.710691667 -e sim_annotation 32.710691667 31 node 1 receive packet(vectorbasedforward) 8
n -t 32.710691667 -s 5 -S COLOR -c red -o yellow
r -t 32.710691667 -s 5 -d -1 -p vectorbasedforward -e 300 -c 2 -a 0 -i 8 -k MAC -R 3000.000000
v -t 32.710691667 -e sim_annotation 32.710691667 32 node 5 receive packet(vectorbasedforward) 8
r -t 33.262976416 -s 2 -d -1 -p vectorbasedforward -e 300 -c 2 -a 0 -i 8 -k MAC -R 3000.000000
v -t 33.262976416 -e sim_annotation 33.262976416 33 node 2 receive packet(vectorbasedforward) 8
r -t 33.262976416 -s 0 -d -1 -p vectorbasedforward -e 300 -c 2 -a 0 -i 8 -k MAC -R 3000.000000
v -t 33.262976416 -e sim_annotation 33.262976416 34 node 0 receive packet(vectorbasedforward) 8
+ -t 34.032987258 -s 2 -d -1 -p vectorbasedforward -e 309 -c 2 -a 0 -i 8 -k MAC 
- -t 34.032987258 -s 2 -d -1 -p vectorbasedforward -e 309 -c 2 -a 0 -i 8 -k MAC
h -t 34.032987258 -s 2 -d -1 -p vectorbasedforward -e 309 -c 2 -a 0 -i 8 -k MAC -R 3000.000000
v -t 34.032987258 -e sim_annotation 34.032987258 35 node 2 sendout packet (vectorbasedforward) 8
n -t 36.258462170 -s 12 -S COLOR -c red -o yellow
r -t 36.258462170 -s 12 -d -1 -p vectorbasedforward -e 300 -c 2 -a 0 -i 6 -k MAC -R 3000.000000
v -t 36.258462170 -e sim_annotation 36.258462170 36 node 12 receive packet(vectorbasedforward) 6
r -t 36.482928379 -s 13 -d -1 -p vectorbasedforward -e 300 -c 2 -a 0 -i 6 -k MAC -R 3000.000000
v -t 36.482928379 -e sim_annotation 36.482928379 37 node 13 receive packet(vectorbasedforward) 6
r -t 36.516025000 -s 0 -d -1 -p vectorbasedforward -e 300 -c 2 -a 0 -i 6 -k MAC -R 3000.000000
v -t 36.516025000 -e sim_annotation 36.516025000 38 node 0 receive packet(vectorbasedforward) 6
r -t 36.516025000 -s 6 -d -1 -p vectorbasedforward -e 300 -c 2 -a 0 -i 6 -k MAC -R 3000.000000
v -t 36.516025000 -e sim_annotation 36.516025000 39 node 6 receive packet(vectorbasedforward) 6
r -t 37.068309750 -s 7 -d -1 -p vectorbasedforward -e 300 -c 2 -a 0 -i 6 -k MAC -R 3000.000000
v -t 37.068309750 -e sim_annotation 37.068309750 40 node 7 receive packet(vectorbasedforward) 6
r -t 37.838320591 -s 5 -d -1 -p vectorbasedforward -e 300 -c 2 -a 0 -i 8 -k MAC -R 3000.000000
v -t 37.838320591 -e sim_annotation 37.838320591 41 node 5 receive packet(vectorbasedforward) 8
+ -t 48.433358333 -s 0 -d -1 -p vectorbasedforward -e 309 -c 2 -a 0 -i 12 -k MAC 
- -t 48.433358333 -s 0 -d -1 -p vectorbasedforward -e 309 -c 2 -a 0 -i 12 -k MAC
n -t 48.433358333 -s 0 -S COLOR -c red -o yellow
h -t 48.433358333 -s 0 -d -1 -p vectorbasedforward -e 309 -c 2 -a 0 -i 12 -k MAC -R 3000.000000
v -t 48.433358333 -e sim_annotation 48.433358333 42 node 0 sendout packet (vectorbasedforward) 12
+ -t 48.433358333 -s 6 -d -1 -p vectorbasedforward -e 309 -c 2 -a 0 -i 13 -k MAC 
- -t 48.433358333 -s 6 -d -1 -p vectorbasedforward -e 309 -c 2 -a 0 -i 13 -k MAC
h -t 48.433358333 -s 6 -d -1 -p vectorbasedforward -e 309 -c 2 -a 0 -i 13 -k MAC -R 3000.000000
v -t 48.433358333 -e sim_annotation 48.433358333 43 node 6 sendout packet (vectorbasedforward) 13
r -t 51.548364351 -s 13 -d -1 -p vectorbasedforward -e 300 -c 2 -a 0 -i 13 -k MAC -R 3000.000000
v -t 51.548364351 -e sim_annotation 51.548364351 44 node 13 receive packet(vectorbasedforward) 13
r -t 51.674276090 -s 12 -d -1 -p vectorbasedforward -e 300 -c 2 -a 0 -i 12 -k MAC -R 3000.000000
v -t 51.674276090 -e sim_annotation 51.674276090 45 node 12 receive packet(vectorbasedforward) 12
r -t 52.238691667 -s 1 -d -1 -p vectorbasedforward -e 300 -c 2 -a 0 -i 12 -k MAC -R 3000.000000
v -t 52.238691667 -e sim_annotation 52.238691667 46 node 1 receive packet(vectorbasedforward) 12
+ -t 52.238691667 -s 1 -d -1 -p vectorbasedforward -e 309 -c 2 -a 0 -i 14 -k MAC 
- -t 52.238691667 -s 1 -d -1 -p vectorbasedforward -e 309 -c 2 -a 0 -i 14 -k MAC
h -t 52.238691667 -s 1 -d -1 -p vectorbasedforward -e 309 -c 2 -a 0 -i 14 -k MAC -R 3000.000000
v -t 52.238691667 -e sim_annotation 52.238691667 47 node 1 sendout packet (vectorbasedforward) 14
r -t 52.238691667 -s 7 -d -1 -p vectorbasedforward -e 300 -c 2 -a 0 -i 13 -k MAC -R 3000.000000
v -t 52.238691667 -e sim_annotation 52.238691667 48 node 7 receive packet(vectorbasedforward) 13
+ -t 52.238691667 -s 7 -d -1 -p vectorbasedforward -e 309 -c 2 -a 0 -i 15 -k MAC 
- -t 52.238691667 -s 7 -d -1 -p vectorbasedforward -e 309 -c 2 -a 0 -i 15 -k MAC
h -t 52.238691667 -s 7 -d -1 -p vectorbasedforward -e 309 -c 2 -a 0 -i 15 -k MAC -R 3000.000000
v -t 52.238691667 -e sim_annotation 52.238691667 49 node 7 sendout packet (vectorbasedforward) 15
r -t 52.238691667 -s 9 -d -1 -p vectorbasedforward -e 300 -c 2 -a 0 -i 13 -k MAC -R 3000.000000
v -t 52.238691667 -e sim_annotation 52.238691667 50 node 9 receive packet(vectorbasedforward) 13
+ -t 52.433358333 -s 2 -d -1 -p vectorbasedforward -e 309 -c 2 -a 0 -i 16 -k MAC 
- -t 52.433358333 -s 2 -d -1 -p vectorbasedforward -e 309 -c 2 -a 0 -i 16 -k MAC
h -t 52.433358333 -s 2 -d -1 -p vectorbasedforward -e 309 -c 2 -a 0 -i 16 -k MAC -R 3000.000000
v -t 52.433358333 -e sim_annotation 52.433358333 51 node 2 sendout packet (vectorbasedforward) 16
+ -t 52.433358333 -s 8 -d -1 -p vectorbasedforward -e 309 -c 2 -a 0 -i 17 -k MAC 
- -t 52.433358333 -s 8 -d -1 -p vectorbasedforward -e 309 -c 2 -a 0 -i 17 -k MAC
h -t 52.433358333 -s 8 -d -1 -p vectorbasedforward -e 309 -c 2 -a 0 -i 17 -k MAC -R 3000.000000
v -t 52.433358333 -e sim_annotation 52.433358333 52 node 8 sendout packet (vectorbasedforward) 17
r -t 52.790976416 -s 10 -d -1 -p vectorbasedforward -e 300 -c 2 -a 0 -i 13 -k MAC -R 3000.000000
v -t 52.790976416 -e sim_annotation 52.790976416 53 node 10 receive packet(vectorbasedforward) 13
r -t 56.044025000 -s 0 -d -1 -p vectorbasedforward -e 300 -c 2 -a 0 -i 14 -k MAC -R 3000.000000
v -t 56.044025000 -e sim_annotation 56.044025000 54 node 0 receive packet(vectorbasedforward) 14
r -t 56.044025000 -s 6 -d -1 -p vectorbasedforward -e 300 -c 2 -a 0 -i 15 -k MAC -R 3000.000000
v -t 56.044025000 -e sim_annotation 56.044025000 55 node 6 receive packet(vectorbasedforward) 15
r -t 56.596309750 -s 9 -d -1 -p vectorbasedforward -e 300 -c 2 -a 0 -i 15 -k MAC -R 3000.000000
v -t 56.596309750 -e sim_annotation 56.596309750 56 node 9 receive packet(vectorbasedforward) 15
+ -t 56.596309750 -s 9 -d -1 -p vectorbasedforward -e 309 -c 2 -a 0 -i 19 -k MAC 
- -t 56.596309750 -s 9 -d -1 -p vectorbasedforward -e 309 -c 2 -a 0 -i 19 -k MAC
h -t 56.596309750 -s 9 -d -1 -p vectorbasedforward -e 309 -c 2 -a 0 -i 19 -k MAC -R 3000.000000
v -t 56.596309750 -e sim_annotation 56.596309750 57 node 9 sendout packet (vectorbasedforward) 19
r -t 56.659085893 -s 13 -d -1 -p vectorbasedforward -e 300 -c 2 -a 0 -i 15 -k MAC -R 3000.000000
v -t 56.659085893 -e sim_annotation 56.659085893 58 node 13 receive packet(vectorbasedforward) 15
r -t 56.704185544 -s 12 -d -1 -p vectorbasedforward -e 300 -c 2 -a 0 -i 14 -k MAC -R 3000.000000
v -t 56.704185544 -e sim_annotation 56.704185544 59 node 12 receive packet(vectorbasedforward) 14
+ -t 58.433358333 -s 5 -d -1 -p vectorbasedforward -e 309 -c 2 -a 0 -i 22 -k MAC 
- -t 58.433358333 -s 5 -d -1 -p vectorbasedforward -e 309 -c 2 -a 0 -i 22 -k MAC
h -t 58.433358333 -s 5 -d -1 -p vectorbasedforward -e 309 -c 2 -a 0 -i 22 -k MAC -R 3000.000000
v -t 58.433358333 -e sim_annotation 58.433358333 60 node 5 sendout packet (vectorbasedforward) 22
+ -t 58.433358333 -s 11 -d -1 -p vectorbasedforward -e 309 -c 2 -a 0 -i 23 -k MAC 
- -t 58.433358333 -s 11 -d -1 -p vectorbasedforward -e 309 -c 2 -a 0 -i 23 -k MAC
n -t 58.433358333 -s 11 -S COLOR -c red -o yellow
h -t 58.433358333 -s 11 -d -1 -p vectorbasedforward -e 309 -c 2 -a 0 -i 23 -k MAC -R 3000.000000
v -t 58.433358333 -e sim_annotation 58.433358333 61 node 11 sendout packet (vectorbasedforward) 23
r -t 60.401643083 -s 6 -d -1 -p vectorbasedforward -e 300 -c 2 -a 0 -i 19 -k MAC -R 3000.000000
v -t 60.401643083 -e sim_annotation 60.401643083 62 node 6 receive packet(vectorbasedforward) 19
r -t 60.713947836 -s 13 -d -1 -p vectorbasedforward -e 300 -c 2 -a 0 -i 19 -k MAC -R 3000.000000
v -t 60.713947836 -e sim_annotation 60.713947836 63 node 13 receive packet(vectorbasedforward) 19
r -t 62.238691667 -s 4 -d -1 -p vectorbasedforward -e 300 -c 2 -a 0 -i 22 -k MAC -R 3000.000000
v -t 62.238691667 -e sim_annotation 62.238691667 64 node 4 receive packet(vectorbasedforward) 22
+ -t 62.238691667 -s 4 -d -1 -p vectorbasedforward -e 309 -c 2 -a 0 -i 20 -k MAC 
- -t 62.238691667 -s 4 -d -1 -p vectorbasedforward -e 309 -c 2 -a 0 -i 20 -k MAC
h -t 62.238691667 -s 4 -d -1 -p vectorbasedforward -e 309 -c 2 -a 0 -i 20 -k MAC -R 3000.000000
v -t 62.238691667 -e sim_annotation 62.238691667 65 node 4 sendout packet (vectorbasedforward) 20
r -t 62.238691667 -s 2 -d -1 -p vectorbasedforward -e 300 -c 2 -a 0 -i 22 -k MAC -R 3000.000000
v -t 62.238691667 -e sim_annotation 62.238691667 66 node 2 receive packet(vectorbasedforward) 22
r -t 62.790976416 -s 1 -d -1 -p vectorbasedforward -e 300 -c 2 -a 0 -i 22 -k MAC -R 3000.000000
v -t 62.790976416 -e sim_annotation 62.790976416 67 node 1 receive packet(vectorbasedforward) 22
r -t 66.044025000 -s 3 -d -1 -p vectorbasedforward -e 300 -c 2 -a 0 -i 20 -k MAC -R 3000.000000
v -t 66.044025000 -e sim_annotation 66.044025000 68 node 3 receive packet(vectorbasedforward) 20
+ -t 66.044025000 -s 3 -d -1 -p vectorbasedforward -e 309 -c 2 -a 0 -i 18 -k MAC 
- -t 66.044025000 -s 3 -d -1 -p vectorbasedforward -e 309 -c 2 -a 0 -i 18 -k MAC
h -t 66.044025000 -s 3 -d -1 -p vectorbasedforward -e 309 -c 2 -a 0 -i 18 -k MAC -R 3000.000000
v -t 66.044025000 -e sim_annotation 66.044025000 69 node 3 sendout packet (vectorbasedforward) 18
r -t 66.044025000 -s 1 -d -1 -p vectorbasedforward -e 300 -c 2 -a 0 -i 20 -k MAC -R 3000.000000
v -t 66.044025000 -e sim_annotation 66.044025000 70 node 1 receive packet(vectorbasedforward) 20
r -t 66.044025000 -s 5 -d -1 -p vectorbasedforward -e 300 -c 2 -a 0 -i 20 -k MAC -R 3000.000000
v -t 66.044025000 -e sim_annotation 66.044025000 71 node 5 receive packet(vectorbasedforward) 20
r -t 66.044025000 -s 7 -d -1 -p vectorbasedforward -e 300 -c 2 -a 0 -i 20 -k MAC -R 3000.000000
v -t 66.044025000 -e sim_annotation 66.044025000 72 node 7 receive packet(vectorbasedforward) 20
r -t 66.596309750 -s 2 -d -1 -p vectorbasedforward -e 300 -c 2 -a 0 -i 20 -k MAC -R 3000.000000
v -t 66.596309750 -e sim_annotation 66.596309750 73 node 2 receive packet(vectorbasedforward) 20
r -t 66.596309750 -s 0 -d -1 -p vectorbasedforward -e 300 -c 2 -a 0 -i 20 -k MAC -R 3000.000000
v -t 66.596309750 -e sim_annotation 66.596309750 74 node 0 receive packet(vectorbasedforward) 20
r -t 66.596309750 -s 6 -d -1 -p vectorbasedforward -e 300 -c 2 -a 0 -i 20 -k MAC -R 3000.000000
v -t 66.596309750 -e sim_annotation 66.596309750 75 node 6 receive packet(vectorbasedforward) 20
r -t 66.596309750 -s 8 -d -1 -p vectorbasedforward -e 300 -c 2 -a 0 -i 20 -k MAC -R 3000.000000
v -t 66.596309750 -e sim_annotation 66.596309750 76 node 8 receive packet(vectorbasedforward) 20
+ -t 67.366320591 -s 2 -d -1 -p vectorbasedforward -e 309 -c 2 -a 0 -i 20 -k MAC 
- -t 67.366320591 -s 2 -d -1 -p vectorbasedforward -e 309 -c 2 -a 0 -i 20 -k MAC
h -t 67.366320591 -s 2 -d -1 -p vectorbasedforward -e 309 -c 2 -a 0 -i 20 -k MAC -R 3000.000000
v -t 67.366320591 -e sim_annotation 67.366320591 77 node 2 sendout packet (vectorbasedforward) 20
r -t 69.559842877 -s 12 -d -1 -p vectorbasedforward -e 300 -c 2 -a 0 -i 18 -k MAC -R 3000.000000
v -t 69.559842877 -e sim_annotation 69.559842877 78 node 12 receive packet(vectorbasedforward) 18
r -t 69.789951644 -s 13 -d -1 -p vectorbasedforward -e 300 -c 2 -a 0 -i 18 -k MAC -R 3000.000000
v -t 69.789951644 -e sim_annotation 69.789951644 79 node 13 receive packet(vectorbasedforward) 18
r -t 69.849358333 -s 0 -d -1 -p vectorbasedforward -e 300 -c 2 -a 0 -i 18 -k MAC -R 3000.000000
v -t 69.849358333 -e sim_annotation 69.849358333 80 node 0 receive packet(vectorbasedforward) 18
r -t 69.849358333 -s 6 -d -1 -p vectorbasedforward -e 300 -c 2 -a 0 -i 18 -k MAC -R 3000.000000
v -t 69.849358333 -e sim_annotation 69.849358333 81 node 6 receive packet(vectorbasedforward) 18
r -t 70.401643083 -s 7 -d -1 -p vectorbasedforward -e 300 -c 2 -a 0 -i 18 -k MAC -R 3000.000000
v -t 70.401643083 -e sim_annotation 70.401643083 82 node 7 receive packet(vectorbasedforward) 18
r -t 71.171653924 -s 5 -d -1 -p vectorbasedforward -e 300 -c 2 -a 0 -i 20 -k MAC -R 3000.000000
v -t 71.171653924 -e sim_annotation 71.171653924 83 node 5 receive packet(vectorbasedforward) 20
+ -t 81.766691667 -s 0 -d -1 -p vectorbasedforward -e 309 -c 2 -a 0 -i 24 -k MAC 
- -t 81.766691667 -s 0 -d -1 -p vectorbasedforward -e 309 -c 2 -a 0 -i 24 -k MAC
h -t 81.766691667 -s 0 -d -1 -p vectorbasedforward -e 309 -c 2 -a 0 -i 24 -k MAC -R 3000.000000
v -t 81.766691667 -e sim_annotation 81.766691667 84 node 0 sendout packet (vectorbasedforward) 24
+ -t 81.766691667 -s 6 -d -1 -p vectorbasedforward -e 309 -c 2 -a 0 -i 25 -k MAC 
- -t 81.766691667 -s 6 -d -1 -p vectorbasedforward -e 309 -c 2 -a 0 -i 25 -k MAC
h -t 81.766691667 -s 6 -d -1 -p vectorbasedforward -e 309 -c 2 -a 0 -i 25 -k MAC -R 3000.000000
v -t 81.766691667 -e sim_annotation 81.766691667 85 node 6 sendout packet (vectorbasedforward) 25
r -t 84.829150750 -s 13 -d -1 -p vectorbasedforward -e 300 -c 2 -a 0 -i 25 -k MAC -R 3000.000000
v -t 84.829150750 -e sim_annotation 84.829150750 86 node 13 receive packet(vectorbasedforward) 25
r -t 84.964239533 -s 12 -d -1 -p vectorbasedforward -e 300 -c 2 -a 0 -i 24 -k MAC -R 3000.000000
v -t 84.964239533 -e sim_annotation 84.964239533 87 node 12 receive packet(vectorbasedforward) 24
r -t 85.572025000 -s 1 -d -1 -p vectorbasedforward -e 300 -c 2 -a 0 -i 24 -k MAC -R 3000.000000
v -t 85.572025000 -e sim_annotation 85.572025000 88 node 1 receive packet(vectorbasedforward) 24
+ -t 85.572025000 -s 1 -d -1 -p vectorbasedforward -e 309 -c 2 -a 0 -i 26 -k MAC 
- -t 85.572025000 -s 1 -d -1 -p vectorbasedforward -e 309 -c 2 -a 0 -i 26 -k MAC
h -t 85.572025000 -s 1 -d -1 -p vectorbasedforward -e 309 -c 2 -a 0 -i 26 -k MAC -R 3000.000000
v -t 85.572025000 -e sim_annotation 85.572025000 89 node 1 sendout packet (vectorbasedforward) 26
r -t 85.572025000 -s 7 -d -1 -p vectorbasedforward -e 300 -c 2 -a 0 -i 25 -k MAC -R 3000.000000
v -t 85.572025000 -e sim_annotation 85.572025000 90 node 7 receive packet(vectorbasedforward) 25
+ -t 85.572025000 -s 7 -d -1 -p vectorbasedforward -e 309 -c 2 -a 0 -i 27 -k MAC 
- -t 85.572025000 -s 7 -d -1 -p vectorbasedforward -e 309 -c 2 -a 0 -i 27 -k MAC
h -t 85.572025000 -s 7 -d -1 -p vectorbasedforward -e 309 -c 2 -a 0 -i 27 -k MAC -R 3000.000000
v -t 85.572025000 -e sim_annotation 85.572025000 91 node 7 sendout packet (vectorbasedforward) 27
r -t 85.572025000 -s 9 -d -1 -p vectorbasedforward -e 300 -c 2 -a 0 -i 25 -k MAC -R 3000.000000
v -t 85.572025000 -e sim_annotation 85.572025000 92 node 9 receive packet(vectorbasedforward) 25
+ -t 85.766691667 -s 2 -d -1 -p vectorbasedforward -e 309 -c 2 -a 0 -i 28 -k MAC 
- -t 85.766691667 -s 2 -d -1 -p vectorbasedforward -e 309 -c 2 -a 0 -i 28 -k MAC
h -t 85.766691667 -s 2 -d -1 -p vectorbasedforward -e 309 -c 2 -a 0 -i 28 -k MAC -R 3000.000000
v -t 85.766691667 -e sim_annotation 85.766691667 93 node 2 sendout packet (vectorbasedforward) 28
+ -t 85.766691667 -s 8 -d -1 -p vectorbasedforward -e 309 -c 2 -a 0 -i 29 -k MAC 
- -t 85.766691667 -s 8 -d -1 -p vectorbasedforward -e 309 -c 2 -a 0 -i 29 -k MAC
h -t 85.766691667 -s 8 -d -1 -p vectorbasedforward -e 309 -c 2 -a 0 -i 29 -k MAC -R 3000.000000
v -t 85.766691667 -e sim_annotation 85.766691667 94 node 8 sendout packet (vectorbasedforward) 29
r -t 86.124309750 -s 10 -d -1 -p vectorbasedforward -e 300 -c 2 -a 0 -i 25 -k MAC -R 3000.000000
v -t 86.124309750 -e sim_annotation 86.124309750 95 node 10 receive packet(vectorbasedforward) 25
+ -t 86.124309750 -s 10 -d -1 -p vectorbasedforward -e 309 -c 2 -a 0 -i 21 -k MAC 
- -t 86.124309750 -s 10 -d -1 -p vectorbasedforward -e 309 -c 2 -a 0 -i 21 -k MAC
h -t 86.124309750 -s 10 -d -1 -p vectorbasedforward -e 309 -c 2 -a 0 -i 21 -k MAC -R 3000.000000
v -t 86.124309750 -e sim_annotation 86.124309750 96 node 10 sendout packet (vectorbasedforward) 21
r -t 89.377358333 -s 0 -d -1 -p vectorbasedforward -e 300 -c 2 -a 0 -i 26 -k MAC -R 3000.000000
v -t 89.377358333 -e sim_annotation 89.377358333 97 node 0 receive packet(vectorbasedforward) 26
+ -t 89.766691667 -s 10 -d -1 -p vectorbasedforward -e 309 -c 2 -a 0 -i 33 -k MAC 
- -t 89.766691667 -s 10 -d -1 -p vectorbasedforward -e 309 -c 2 -a 0 -i 33 -k MAC
h -t 89.766691667 -s 10 -d -1 -p vectorbasedforward -e 309 -c 2 -a 0 -i 33 -k MAC -R 3000.000000
v -t 89.766691667 -e sim_annotation 89.766691667 98 node 10 sendout packet (vectorbasedforward) 33
r -t 89.937165723 -s 13 -d -1 -p vectorbasedforward -e 300 -c 2 -a 0 -i 27 -k MAC -R 3000.000000
v -t 89.937165723 -e sim_annotation 89.937165723 99 node 13 receive packet(vectorbasedforward) 27
r -t 89.983550605 -s 12 -d -1 -p vectorbasedforward -e 300 -c 2 -a 0 -i 26 -k MAC -R 3000.000000
v -t 89.983550605 -e sim_annotation 89.983550605 100 node 12 receive packet(vectorbasedforward) 26
+ -t 91.766691667 -s 5 -d -1 -p vectorbasedforward -e 309 -c 2 -a 0 -i 34 -k MAC 
- -t 91.766691667 -s 5 -d -1 -p vectorbasedforward -e 309 -c 2 -a 0 -i 34 -k MAC
h -t 91.766691667 -s 5 -d -1 -p vectorbasedforward -e 309 -c 2 -a 0 -i 34 -k MAC -R 3000.000000
v -t 91.766691667 -e sim_annotation 91.766691667 101 node 5 sendout packet (vectorbasedforward) 34
r -t 93.572025000 -s 9 -d -1 -p vectorbasedforward -e 300 -c 2 -a 0 -i 33 -k MAC -R 3000.000000
v -t 93.572025000 -e sim_annotation 93.572025000 102 node 9 receive packet(vectorbasedforward) 33
+ -t 93.572025000 -s 9 -d -1 -p vectorbasedforward -e 309 -c 2 -a 0 -i 31 -k MAC 
- -t 93.572025000 -s 9 -d -1 -p vectorbasedforward -e 309 -c 2 -a 0 -i 31 -k MAC
h -t 93.572025000 -s 9 -d -1 -p vectorbasedforward -e 309 -c 2 -a 0 -i 31 -k MAC -R 3000.000000
v -t 93.572025000 -e sim_annotation 93.572025000 103 node 9 sendout packet (vectorbasedforward) 31
r -t 93.572025000 -s 7 -d -1 -p vectorbasedforward -e 300 -c 2 -a 0 -i 33 -k MAC -R 3000.000000
v -t 93.572025000 -e sim_annotation 93.572025000 104 node 7 receive packet(vectorbasedforward) 33
r -t 93.572025000 -s 11 -d -1 -p vectorbasedforward -e 300 -c 2 -a 0 -i 33 -k MAC -R 3000.000000
v -t 93.572025000 -e sim_annotation 93.572025000 105 node 11 receive packet(vectorbasedforward) 33
+ -t 93.572025000 -s 11 -d -1 -p vectorbasedforward -e 309 -c 2 -a 0 -i 35 -k MAC 
- -t 93.572025000 -s 11 -d -1 -p vectorbasedforward -e 309 -c 2 -a 0 -i 35 -k MAC
h -t 93.572025000 -s 11 -d -1 -p vectorbasedforward -e 309 -c 2 -a 0 -i 35 -k MAC -R 3000.000000
v -t 93.572025000 -e sim_annotation 93.572025000 106 node 11 sendout packet (vectorbasedforward) 35
r -t 94.124309750 -s 6 -d -1 -p vectorbasedforward -e 300 -c 2 -a 0 -i 33 -k MAC -R 3000.000000
v -t 94.124309750 -e sim_annotation 94.124309750 107 node 6 receive packet(vectorbasedforward) 33
r -t 95.572025000 -s 4 -d -1 -p vectorbasedforward -e 300 -c 2 -a 0 -i 34 -k MAC -R 3000.000000
v -t 95.572025000 -e sim_annotation 95.572025000 108 node 4 receive packet(vectorbasedforward) 34
+ -t 95.572025000 -s 4 -d -1 -p vectorbasedforward -e 309 -c 2 -a 0 -i 32 -k MAC 
- -t 95.572025000 -s 4 -d -1 -p vectorbasedforward -e 309 -c 2 -a 0 -i 32 -k MAC
h -t 95.572025000 -s 4 -d -1 -p vectorbasedforward -e 309 -c 2 -a 0 -i 32 -k MAC -R 3000.000000
v -t 95.572025000 -e sim_annotation 95.572025000 109 node 4 sendout packet (vectorbasedforward) 32
r -t 95.572025000 -s 2 -d -1 -p vectorbasedforward -e 300 -c 2 -a 0 -i 34 -k MAC -R 3000.000000
v -t 95.572025000 -e sim_annotation 95.572025000 110 node 2 receive packet(vectorbasedforward) 34
r -t 96.124309750 -s 1 -d -1 -p vectorbasedforward -e 300 -c 2 -a 0 -i 34 -k MAC -R 3000.000000
v -t 96.124309750 -e sim_annotation 96.124309750 111 node 1 receive packet(vectorbasedforward) 34
r -t 97.377358333 -s 6 -d -1 -p vectorbasedforward -e 300 -c 2 -a 0 -i 31 -k MAC -R 3000.000000
v -t 97.377358333 -e sim_annotation 97.377358333 112 node 6 receive packet(vectorbasedforward) 31
r -t 97.668302821 -s 13 -d -1 -p vectorbasedforward -e 300 -c 2 -a 0 -i 31 -k MAC -R 3000.000000
v -t 97.668302821 -e sim_annotation 97.668302821 113 node 13 receive packet(vectorbasedforward) 31