n -t * -s 0  -x 1000 -y 5000 -Z 0 -z 1000  -v circle -c green
n -t * -s 1  -x 1000 -y 3000 -Z 0 -z 1000  -v circle -c green
n -t * -s 2  -x 1000 -y 1000 -Z 0 -z 1000  -v circle -c green
n -t * -s 3  -x 3000 -y 5000 -Z 0 -z 1000  -v circle -c green
n -t * -s 4  -x 3000 -y 3000 -Z 0 -z 1000  -v circle -c green
n -t * -s 5  -x 3000 -y 1000 -Z 0 -z 1000  -v circle -c green
n -t * -s 6  -x 5000 -y 5000 -Z 0 -z 1000  -v circle -c green
n -t * -s 7  -x 5000 -y 3000 -Z 0 -z 1000  -v circle -c green
n -t * -s 8  -x 5000 -y 1000 -Z 0 -z 1000  -v circle -c green
n -t * -s 9  -x 7000 -y 5000 -Z 0 -z 1000  -v circle -c green
n -t * -s 10  -x 7000 -y 3000 -Z 0 -z 1000  -v circle -c green
n -t * -s 11  -x 7000 -y 1000 -Z 0 -z 1000  -v circle -c green
n -t * -s 12  -x 2000 -y 6000 -Z 0 -z 1000  -v circle -c green
n -t * -s 13  -x 6000 -y 6000 -Z 0 -z 1000  -v circle -c green
n -t * -s 14  -x 4000 -y 10 -Z 0 -z 1000  -v circle -c green
V -t * -v 1.0a5 -a 0
W -t * -x 10000 -y 7000
A -t * -n 1 -p 0 -o 0xffffffff -c 31 -a 1
A -t * -h 1 -m 2147483647 -s 0
n -t 15.100000 -s 12 -x 2000.000000 -y 6000.000000 -U 0.000000 -V -2.500000 -T 2396.000000
n -t 15.100000 -s 13 -x 6000.000000 -y 6000.000000 -U 0.000000 -V -2.500000 -T 2396.000000
n -t 15.100000 -s 14 -x 4000.000000 -y 10.000000 -U 0.000000 -V 2.500000 -T 2396.000000
+ -t 16.900025000 -s 14 -d -1 -p vectorbasedforward -e 60 -c 2 -a 0 -i 0 -k MAC 
- -t 16.900025000 -s 14 -d -1 -p vectorbasedforward -e 60 -c 2 -a 0 -i 0 -k MAC
n -t 16.900025000 -s 14 -S COLOR -c red -o yellow
h -t 16.900025000 -s 14 -d -1 -p vectorbasedforward -e 60 -c 2 -a 0 -i 0 -k MAC -R 3000.000000
v -t 16.900025000 -e sim_annotation 16.900025000 1 node 14 sendout packet (vectorbasedforward) 0
n -t 18.124215606 -s 5 -S COLOR -c red -o yellow
r -t 18.124215606 -s 5 -d -1 -p vectorbasedforward -e 60 -c 2 -a 0 -i 0 -k MAC -R 3000.000000
v -t 18.124215606 -e sim_annotation 18.124215606 2 node 5 receive packet(vectorbasedforward) 0
n -t 18.124215606 -s 8 -S COLOR -c red -o yellow
r -t 18.124215606 -s 8 -d -1 -p vectorbasedforward -e 60 -c 2 -a 0 -i 0 -k MAC -R 3000.000000
v -t 18.124215606 -e sim_annotation 18.124215606 3 node 8 receive packet(vectorbasedforward) 0
+ -t 18.900025000 -s 12 -d -1 -p vectorbasedforward -e 60 -c 2 -a 0 -i 2 -k MAC 
- -t 18.900025000 -s 12 -d -1 -p vectorbasedforward -e 60 -c 2 -a 0 -i 2 -k MAC
n -t 18.900025000 -s 12 -S COLOR -c red -o yellow
h -t 18.900025000 -s 12 -d -1 -p vectorbasedforward -e 60 -c 2 -a 0 -i 2 -k MAC -R 3000.000000
v -t 18.900025000 -e sim_annotation 18.900025000 4 node 12 sendout packet (vectorbasedforward) 2
+ -t 19.300025000 -s 13 -d -1 -p vectorbasedforward -e 60 -c 2 -a 0 -i 1 -k MAC 
- -t 19.300025000 -s 13 -d -1 -p vectorbasedforward -e 60 -c 2 -a 0 -i 1 -k MAC
n -t 19.300025000 -s 13 -S COLOR -c red -o yellow
h -t 19.300025000 -s 13 -d -1 -p vectorbasedforward -e 60 -c 2 -a 0 -i 1 -k MAC -R 3000.000000
v -t 19.300025000 -e sim_annotation 19.300025000 5 node 13 sendout packet (vectorbasedforward) 1
n -t 20.126558356 -s 0 -S COLOR -c red -o yellow
r -t 20.126558356 -s 0 -d -1 -p vectorbasedforward -e 60 -c 2 -a 0 -i 2 -k MAC -R 3000.000000
v -t 20.126558356 -e sim_annotation 20.126558356 6 node 0 receive packet(vectorbasedforward) 2
n -t 20.126558356 -s 3 -S COLOR -c red -o yellow
r -t 20.126558356 -s 3 -d -1 -p vectorbasedforward -e 60 -c 2 -a 0 -i 2 -k MAC -R 3000.000000
v -t 20.126558356 -e sim_annotation 20.126558356 7 node 3 receive packet(vectorbasedforward) 2
n -t 20.526089326 -s 6 -S COLOR -c red -o yellow
r -t 20.526089326 -s 6 -d -1 -p vectorbasedforward -e 60 -c 2 -a 0 -i 1 -k MAC -R 3000.000000
v -t 20.526089326 -e sim_annotation 20.526089326 8 node 6 receive packet(vectorbasedforward) 1
n -t 20.526089326 -s 9 -S COLOR -c red -o yellow
r -t 20.526089326 -s 9 -d -1 -p vectorbasedforward -e 60 -c 2 -a 0 -i 1 -k MAC -R 3000.000000
v -t 20.526089326 -e sim_annotation 20.526089326 9 node 9 receive packet(vectorbasedforward) 1
+ -t 22.824265606 -s 8 -d -1 -p RTS -e 44 -c 2 -a 0 -i 0 -k MAC 
- -t 22.824265606 -s 8 -d -1 -p RTS -e 44 -c 2 -a 0 -i 0 -k MAC
n -t 22.824265606 -s 8 -S COLOR -c red -o yellow
h -t 22.824265606 -s 8 -d -1 -p RTS -e 44 -c 2 -a 0 -i 0 -k MAC -R 3000.000000
v -t 22.824265606 -e sim_annotation 22.824265606 10 node 8 sendout packet (RTS) 0
+ -t 23.024265606 -s 5 -d -1 -p RTS -e 44 -c 2 -a 0 -i 0 -k MAC 
- -t 23.024265606 -s 5 -d -1 -p RTS -e 44 -c 2 -a 0 -i 0 -k MAC
n -t 23.024265606 -s 5 -S COLOR -c red -o yellow
h -t 23.024265606 -s 5 -d -1 -p RTS -e 44 -c 2 -a 0 -i 0 -k MAC -R 3000.000000
v -t 23.024265606 -e sim_annotation 23.024265606 11 node 5 sendout packet (RTS) 0
+ -t 23.826139326 -s 6 -d -1 -p RTS -e 44 -c 2 -a 0 -i 0 -k MAC 
- -t 23.826139326 -s 6 -d -1 -p RTS -e 44 -c 2 -a 0 -i 0 -k MAC
n -t 23.826139326 -s 6 -S COLOR -c red -o yellow
h -t 23.826139326 -s 6 -d -1 -p RTS -e 44 -c 2 -a 0 -i 0 -k MAC -R 3000.000000
v -t 23.826139326 -e sim_annotation 23.826139326 12 node 6 sendout packet (RTS) 0
n -t 23.913552216 -s 14 -S COLOR -c red -o yellow
r -t 23.913552216 -s 14 -d -1 -p RTS -e 44 -c 2 -a 0 -i 0 -k MAC -R 3000.000000
v -t 23.913552216 -e sim_annotation 23.913552216 13 node 14 receive packet(RTS) 0
r -t 24.113320075 -s 14 -d -1 -p RTS -e 44 -c 2 -a 0 -i 0 -k MAC -R 3000.000000
v -t 24.113320075 -e sim_annotation 24.113320075 14 node 14 receive packet(RTS) 0
+ -t 24.213320075 -s 14 -d -1 -p CTS -e 38 -c 2 -a 0 -i 0 -k MAC 
- -t 24.213320075 -s 14 -d -1 -p CTS -e 38 -c 2 -a 0 -i 0 -k MAC
h -t 24.213320075 -s 14 -d -1 -p CTS -e 38 -c 2 -a 0 -i 0 -k MAC -R 3000.000000
v -t 24.213320075 -e sim_annotation 24.213320075 15 node 14 sendout packet (CTS) 0
+ -t 24.626608356 -s 3 -d -1 -p RTS -e 44 -c 2 -a 0 -i 0 -k MAC 
- -t 24.626608356 -s 3 -d -1 -p RTS -e 44 -c 2 -a 0 -i 0 -k MAC
n -t 24.626608356 -s 3 -S COLOR -c red -o yellow
h -t 24.626608356 -s 3 -d -1 -p RTS -e 44 -c 2 -a 0 -i 0 -k MAC -R 3000.000000
v -t 24.626608356 -e sim_annotation 24.626608356 16 node 3 sendout packet (RTS) 0
n -t 24.918913217 -s 13 -S COLOR -c red -o yellow
r -t 24.918913217 -s 13 -d -1 -p RTS -e 44 -c 2 -a 0 -i 0 -k MAC -R 3000.000000
v -t 24.918913217 -e sim_annotation 24.918913217 17 node 13 receive packet(RTS) 0
+ -t 25.018913217 -s 13 -d -1 -p CTS -e 38 -c 2 -a 0 -i 0 -k MAC 
- -t 25.018913217 -s 13 -d -1 -p CTS -e 38 -c 2 -a 0 -i 0 -k MAC
h -t 25.018913217 -s 13 -d -1 -p CTS -e 38 -c 2 -a 0 -i 0 -k MAC -R 3000.000000
v -t 25.018913217 -e sim_annotation 25.018913217 18 node 13 sendout packet (CTS) 0
+ -t 25.226608356 -s 0 -d -1 -p RTS -e 44 -c 2 -a 0 -i 0 -k MAC 
- -t 25.226608356 -s 0 -d -1 -p RTS -e 44 -c 2 -a 0 -i 0 -k MAC
n -t 25.226608356 -s 0 -S COLOR -c red -o yellow
h -t 25.226608356 -s 0 -d -1 -p RTS -e 44 -c 2 -a 0 -i 0 -k MAC -R 3000.000000
v -t 25.226608356 -e sim_annotation 25.226608356 19 node 0 sendout packet (RTS) 0
n -t 25.252995683 -s 5 -S COLOR -c red -o yellow
r -t 25.252995683 -s 5 -d -1 -p CTS -e 38 -c 2 -a 0 -i 0 -k MAC -R 3000.000000
v -t 25.252995683 -e sim_annotation 25.252995683 20 node 5 receive packet(CTS) 0
+ -t 25.352995683 -s 5 -d -1 -p vectorbasedforward -e 352 -c 2 -a 0 -i 3 -k MAC 
- -t 25.352995683 -s 5 -d -1 -p vectorbasedforward -e 352 -c 2 -a 0 -i 3 -k MAC
h -t 25.352995683 -s 5 -d -1 -p vectorbasedforward -e 352 -c 2 -a 0 -i 3 -k MAC -R 3000.000000
v -t 25.352995683 -e sim_annotation 25.352995683 21 node 5 sendout packet (vectorbasedforward) 3
n -t 25.718449834 -s 12 -S COLOR -c red -o yellow
r -t 25.718449834 -s 12 -d -1 -p RTS -e 44 -c 2 -a 0 -i 0 -k MAC -R 3000.000000
v -t 25.718449834 -e sim_annotation 25.718449834 22 node 12 receive packet(RTS) 0
+ -t 25.818449834 -s 12 -d -1 -p CTS -e 38 -c 2 -a 0 -i 0 -k MAC 
- -t 25.818449834 -s 12 -d -1 -p CTS -e 38 -c 2 -a 0 -i 0 -k MAC
h -t 25.818449834 -s 12 -d -1 -p CTS -e 38 -c 2 -a 0 -i 0 -k MAC -R 3000.000000
v -t 25.818449834 -e sim_annotation 25.818449834 23 node 12 sendout packet (CTS) 0
n -t 25.959941689 -s 6 -S COLOR -c red -o yellow
d -t 25.959941689 -s 6 -d -1 -p CTS -e 38 -c 2 -a 0 -i 0 -k MAC
v -t 25.959941689 -e sim_annotation 25.959941689 24 node 6 drop packet(CTS) 0
n -t 26.317751574 -s 12 -S COLOR -c red -o yellow
d -t 26.317751574 -s 12 -d -1 -p RTS -e 44 -c 2 -a 0 -i 0 -k MAC
v -t 26.317751574 -e sim_annotation 26.317751574 25 node 12 drop packet(RTS) 0
n -t 26.860904827 -s 3 -S COLOR -c red -o yellow
r -t 26.860904827 -s 3 -d -1 -p CTS -e 38 -c 2 -a 0 -i 0 -k MAC -R 3000.000000
v -t 26.860904827 -e sim_annotation 26.860904827 26 node 3 receive packet(CTS) 0
+ -t 26.960904827 -s 3 -d -1 -p vectorbasedforward -e 352 -c 2 -a 0 -i 6 -k MAC 
- -t 26.960904827 -s 3 -d -1 -p vectorbasedforward -e 352 -c 2 -a 0 -i 6 -k MAC
h -t 26.960904827 -s 3 -d -1 -p vectorbasedforward -e 352 -c 2 -a 0 -i 6 -k MAC -R 3000.000000
v -t 26.960904827 -e sim_annotation 26.960904827 27 node 3 sendout packet (vectorbasedforward) 6
+ -t 27.815098082 -s 9 -d -1 -p RTS -e 44 -c 2 -a 0 -i 0 -k MAC 
- -t 27.815098082 -s 9 -d -1 -p RTS -e 44 -c 2 -a 0 -i 0 -k MAC
n -t 27.815098082 -s 9 -S COLOR -c red -o yellow
h -t 27.815098082 -s 9 -d -1 -p RTS -e 44 -c 2 -a 0 -i 0 -k MAC -R 3000.000000
v -t 27.815098082 -e sim_annotation 27.815098082 28 node 9 sendout packet (RTS) 0
n -t 28.903235236 -s 13 -S COLOR -c red -o yellow
d -t 28.903235236 -s 13 -d -1 -p RTS -e 44 -c 2 -a 0 -i 0 -k MAC
v -t 28.903235236 -e sim_annotation 28.903235236 29 node 13 drop packet(RTS) 0
n -t 28.903351742 -s 14 -S COLOR -c red -o yellow
r -t 28.903351742 -s 14 -d -1 -p vectorbasedforward -e 300 -c 2 -a 0 -i 3 -k MAC -R 3000.000000
v -t 28.903351742 -e sim_annotation 28.903351742 30 node 14 receive packet(vectorbasedforward) 3
+ -t 29.003351742 -s 14 -d -1 -p ACK -e 38 -c 2 -a 0 -i 0 -k MAC 
- -t 29.003351742 -s 14 -d -1 -p ACK -e 38 -c 2 -a 0 -i 0 -k MAC
h -t 29.003351742 -s 14 -d -1 -p ACK -e 38 -c 2 -a 0 -i 0 -k MAC -R 3000.000000
v -t 29.003351742 -e sim_annotation 29.003351742 31 node 14 sendout packet (ACK) 0
r -t 30.037494947 -s 5 -d -1 -p ACK -e 38 -c 2 -a 0 -i 0 -k MAC -R 3000.000000
v -t 30.037494947 -e sim_annotation 30.037494947 32 node 5 receive packet(ACK) 0
n -t 30.514032833 -s 12 -S COLOR -c red -o yellow
r -t 30.514032833 -s 12 -d -1 -p vectorbasedforward -e 300 -c 2 -a 0 -i 6 -k MAC -R 3000.000000
v -t 30.514032833 -e sim_annotation 30.514032833 33 node 12 receive packet(vectorbasedforward) 6
+ -t 30.614032833 -s 12 -d -1 -p ACK -e 38 -c 2 -a 0 -i 0 -k MAC 
- -t 30.614032833 -s 12 -d -1 -p ACK -e 38 -c 2 -a 0 -i 0 -k MAC
h -t 30.614032833 -s 12 -d -1 -p ACK -e 38 -c 2 -a 0 -i 0 -k MAC -R 3000.000000
v -t 30.614032833 -e sim_annotation 30.614032833 34 node 12 sendout packet (ACK) 0
r -t 31.650931181 -s 3 -d -1 -p ACK -e 38 -c 2 -a 0 -i 0 -k MAC -R 3000.000000
v -t 31.650931181 -e sim_annotation 31.650931181 35 node 3 receive packet(ACK) 0
+ -t 33.828910160 -s 6 -d -1 -p RTS -e 44 -c 2 -a 0 -i 0 -k MAC 
- -t 33.828910160 -s 6 -d -1 -p RTS -e 44 -c 2 -a 0 -i 0 -k MAC
h -t 33.828910160 -s 6 -d -1 -p RTS -e 44 -c 2 -a 0 -i 0 -k MAC -R 3000.000000
v -t 33.828910160 -e sim_annotation 33.828910160 36 node 6 sendout packet (RTS) 0
r -t 34.910103493 -s 13 -d -1 -p RTS -e 44 -c 2 -a 0 -i 0 -k MAC -R 3000.000000
v -t 34.910103493 -e sim_annotation 34.910103493 37 node 13 receive packet(RTS) 0
+ -t 35.010103493 -s 13 -d -1 -p CTS -e 38 -c 2 -a 0 -i 0 -k MAC 
- -t 35.010103493 -s 13 -d -1 -p CTS -e 38 -c 2 -a 0 -i 0 -k MAC
h -t 35.010103493 -s 13 -d -1 -p CTS -e 38 -c 2 -a 0 -i 0 -k MAC -R 3000.000000
v -t 35.010103493 -e sim_annotation 35.010103493 38 node 13 sendout packet (CTS) 0
n -t 36.041939642 -s 6 -S COLOR -c red -o yellow
r -t 36.041939642 -s 6 -d -1 -p CTS -e 38 -c 2 -a 0 -i 0 -k MAC -R 3000.000000
v -t 36.041939642 -e sim_annotation 36.041939642 39 node 6 receive packet(CTS) 0
+ -t 36.141939642 -s 6 -d -1 -p vectorbasedforward -e 352 -c 2 -a 0 -i 7 -k MAC 
- -t 36.141939642 -s 6 -d -1 -p vectorbasedforward -e 352 -c 2 -a 0 -i 7 -k MAC
h -t 36.141939642 -s 6 -d -1 -p vectorbasedforward -e 352 -c 2 -a 0 -i 7 -k MAC -R 3000.000000
v -t 36.141939642 -e sim_annotation 36.141939642 40 node 6 sendout packet (vectorbasedforward) 7
n -t 39.684477394 -s 13 -S COLOR -c red -o yellow
r -t 39.684477394 -s 13 -d -1 -p vectorbasedforward -e 300 -c 2 -a 0 -i 7 -k MAC -R 3000.000000
v -t 39.684477394 -e sim_annotation 39.684477394 41 node 13 receive packet(vectorbasedforward) 7
+ -t 39.784477394 -s 13 -d -1 -p ACK -e 38 -c 2 -a 0 -i 0 -k MAC 
- -t 39.784477394 -s 13 -d -1 -p ACK -e 38 -c 2 -a 0 -i 0 -k MAC
h -t 39.784477394 -s 13 -d -1 -p ACK -e 38 -c 2 -a 0 -i 0 -k MAC -R 3000.000000
v -t 39.784477394 -e sim_annotation 39.784477394 42 node 13 sendout packet (ACK) 0
+ -t 40.537494947 -s 8 -d -1 -p RTS -e 44 -c 2 -a 0 -i 0 -k MAC 
- -t 40.537494947 -s 8 -d -1 -p RTS -e 44 -c 2 -a 0 -i 0 -k MAC
h -t 40.537494947 -s 8 -d -1 -p RTS -e 44 -c 2 -a 0 -i 0 -k MAC -R 3000.000000
v -t 40.537494947 -e sim_annotation 40.537494947 43 node 8 sendout packet (RTS) 0
r -t 40.810850481 -s 6 -d -1 -p ACK -e 38 -c 2 -a 0 -i 0 -k MAC -R 3000.000000
v -t 40.810850481 -e sim_annotation 40.810850481 44 node 6 receive packet(ACK) 0
r -t 41.606465997 -s 14 -d -1 -p RTS -e 44 -c 2 -a 0 -i 0 -k MAC -R 3000.000000
v -t 41.606465997 -e sim_annotation 41.606465997 45 node 14 receive packet(RTS) 0
+ -t 41.706465997 -s 14 -d -1 -p CTS -e 38 -c 2 -a 0 -i 0 -k MAC 
- -t 41.706465997 -s 14 -d -1 -p CTS -e 38 -c 2 -a 0 -i 0 -k MAC
h -t 41.706465997 -s 14 -d -1 -p CTS -e 38 -c 2 -a 0 -i 0 -k MAC -R 3000.000000
v -t 41.706465997 -e sim_annotation 41.706465997 46 node 14 sendout packet (CTS) 0
+ -t 42.550931181 -s 0 -d -1 -p RTS -e 44 -c 2 -a 0 -i 0 -k MAC 
- -t 42.550931181 -s 0 -d -1 -p RTS -e 44 -c 2 -a 0 -i 0 -k MAC
h -t 42.550931181 -s 0 -d -1 -p RTS -e 44 -c 2 -a 0 -i 0 -k MAC -R 3000.000000
v -t 42.550931181 -e sim_annotation 42.550931181 47 node 0 sendout packet (RTS) 0
n -t 42.726114122 -s 8 -S COLOR -c red -o yellow
r -t 42.726114122 -s 8 -d -1 -p CTS -e 38 -c 2 -a 0 -i 0 -k MAC -R 3000.000000
v -t 42.726114122 -e sim_annotation 42.726114122 48 node 8 receive packet(CTS) 0
+ -t 42.826114122 -s 8 -d -1 -p vectorbasedforward -e 352 -c 2 -a 0 -i 4 -k MAC 
- -t 42.826114122 -s 8 -d -1 -p vectorbasedforward -e 352 -c 2 -a 0 -i 4 -k MAC
h -t 42.826114122 -s 8 -d -1 -p vectorbasedforward -e 352 -c 2 -a 0 -i 4 -k MAC -R 3000.000000
v -t 42.826114122 -e sim_annotation 42.826114122 49 node 8 sendout packet (vectorbasedforward) 4
r -t 43.622155576 -s 12 -d -1 -p RTS -e 44 -c 2 -a 0 -i 0 -k MAC -R 3000.000000
v -t 43.622155576 -e sim_annotation 43.622155576 50 node 12 receive packet(RTS) 0
+ -t 43.722155576 -s 12 -d -1 -p CTS -e 38 -c 2 -a 0 -i 0 -k MAC 
- -t 43.722155576 -s 12 -d -1 -p CTS -e 38 -c 2 -a 0 -i 0 -k MAC
h -t 43.722155576 -s 12 -d -1 -p CTS -e 38 -c 2 -a 0 -i 0 -k MAC -R 3000.000000
v -t 43.722155576 -e sim_annotation 43.722155576 51 node 12 sendout packet (CTS) 0
n -t 44.744050677 -s 0 -S COLOR -c red -o yellow
r -t 44.744050677 -s 0 -d -1 -p CTS -e 38 -c 2 -a 0 -i 0 -k MAC -R 3000.000000
v -t 44.744050677 -e sim_annotation 44.744050677 52 node 0 receive packet(CTS) 0
+ -t 44.844050677 -s 0 -d -1 -p vectorbasedforward -e 352 -c 2 -a 0 -i 5 -k MAC 
- -t 44.844050677 -s 0 -d -1 -p vectorbasedforward -e 352 -c 2 -a 0 -i 5 -k MAC
h -t 44.844050677 -s 0 -d -1 -p vectorbasedforward -e 352 -c 2 -a 0 -i 5 -k MAC -R 3000.000000
v -t 44.844050677 -e sim_annotation 44.844050677 53 node 0 sendout packet (vectorbasedforward) 5
r -t 46.356497258 -s 14 -d -1 -p vectorbasedforward -e 300 -c 2 -a 0 -i 4 -k MAC -R 3000.000000
v -t 46.356497258 -e sim_annotation 46.356497258 54 node 14 receive packet(vectorbasedforward) 4
+ -t 46.456497258 -s 14 -d -1 -p ACK -e 38 -c 2 -a 0 -i 0 -k MAC 
- -t 46.456497258 -s 14 -d -1 -p ACK -e 38 -c 2 -a 0 -i 0 -k MAC
h -t 46.456497258 -s 14 -d -1 -p ACK -e 38 -c 2 -a 0 -i 0 -k MAC -R 3000.000000
v -t 46.456497258 -e sim_annotation 46.456497258 55 node 14 sendout packet (ACK) 0
r -t 47.470793102 -s 8 -d -1 -p ACK -e 38 -c 2 -a 0 -i 0 -k MAC -R 3000.000000
v -t 47.470793102 -e sim_annotation 47.470793102 56 node 8 receive packet(ACK) 0
r -t 48.376674580 -s 12 -d -1 -p vectorbasedforward -e 300 -c 2 -a 0 -i 5 -k MAC -R 3000.000000
v -t 48.376674580 -e sim_annotation 48.376674580 57 node 12 receive packet(vectorbasedforward) 5
+ -t 48.476674580 -s 12 -d -1 -p ACK -e 38 -c 2 -a 0 -i 0 -k MAC 
- -t 48.476674580 -s 12 -d -1 -p ACK -e 38 -c 2 -a 0 -i 0 -k MAC
h -t 48.476674580 -s 12 -d -1 -p ACK -e 38 -c 2 -a 0 -i 0 -k MAC -R 3000.000000
v -t 48.476674580 -e sim_annotation 48.476674580 58 node 12 sendout packet (ACK) 0
r -t 49.493196692 -s 0 -d -1 -p ACK -e 38 -c 2 -a 0 -i 0 -k MAC -R 3000.000000
v -t 49.493196692 -e sim_annotation 49.493196692 59 node 0 receive packet(ACK) 0
+ -t 50.310850481 -s 9 -d -1 -p RTS -e 44 -c 2 -a 0 -i 0 -k MAC 
- -t 50.310850481 -s 9 -d -1 -p RTS -e 44 -c 2 -a 0 -i 0 -k MAC
h -t 50.310850481 -s 9 -d -1 -p RTS -e 44 -c 2 -a 0 -i 0 -k MAC -R 3000.000000
v -t 50.310850481 -e sim_annotation 50.310850481 60 node 9 sendout packet (RTS) 0
r -t 51.373309877 -s 13 -d -1 -p RTS -e 44 -c 2 -a 0 -i 0 -k MAC -R 3000.000000
v -t 51.373309877 -e sim_annotation 51.373309877 61 node 13 receive packet(RTS) 0
+ -t 51.473309877 -s 13 -d -1 -p CTS -e 38 -c 2 -a 0 -i 0 -k MAC 
- -t 51.473309877 -s 13 -d -1 -p CTS -e 38 -c 2 -a 0 -i 0 -k MAC
h -t 51.473309877 -s 13 -d -1 -p CTS -e 38 -c 2 -a 0 -i 0 -k MAC -R 3000.000000
v -t 51.473309877 -e sim_annotation 51.473309877 62 node 13 sendout packet (CTS) 0
+ -t 52.370793102 -s 8 -d -1 -p RTS -e 44 -c 2 -a 0 -i 0 -k MAC 
- -t 52.370793102 -s 8 -d -1 -p RTS -e 44 -c 2 -a 0 -i 0 -k MAC
h -t 52.370793102 -s 8 -d -1 -p RTS -e 44 -c 2 -a 0 -i 0 -k MAC -R 3000.000000
v -t 52.370793102 -e sim_annotation 52.370793102 63 node 8 sendout packet (RTS) 0
n -t 52.486464896 -s 9 -S COLOR -c red -o yellow
r -t 52.486464896 -s 9 -d -1 -p CTS -e 38 -c 2 -a 0 -i 0 -k MAC -R 3000.000000
v -t 52.486464896 -e sim_annotation 52.486464896 64 node 9 receive packet(CTS) 0
+ -t 52.586464896 -s 9 -d -1 -p vectorbasedforward -e 352 -c 2 -a 0 -i 8 -k MAC 
- -t 52.586464896 -s 9 -d -1 -p vectorbasedforward -e 352 -c 2 -a 0 -i 8 -k MAC
h -t 52.586464896 -s 9 -d -1 -p vectorbasedforward -e 352 -c 2 -a 0 -i 8 -k MAC -R 3000.000000
v -t 52.586464896 -e sim_annotation 52.586464896 65 node 9 sendout packet (vectorbasedforward) 8
+ -t 53.276608356 -s 0 -d -1 -p RTS -e 44 -c 2 -a 0 -i 0 -k MAC 
- -t 53.276608356 -s 0 -d -1 -p RTS -e 44 -c 2 -a 0 -i 0 -k MAC
h -t 53.276608356 -s 0 -d -1 -p RTS -e 44 -c 2 -a 0 -i 0 -k MAC -R 3000.000000
v -t 53.276608356 -e sim_annotation 53.276608356 66 node 0 sendout packet (RTS) 0
r -t 53.426477896 -s 14 -d -1 -p RTS -e 44 -c 2 -a 0 -i 0 -k MAC -R 3000.000000
v -t 53.426477896 -e sim_annotation 53.426477896 67 node 14 receive packet(RTS) 0
+ -t 53.526477896 -s 14 -d -1 -p CTS -e 38 -c 2 -a 0 -i 0 -k MAC 
- -t 53.526477896 -s 14 -d -1 -p CTS -e 38 -c 2 -a 0 -i 0 -k MAC
h -t 53.526477896 -s 14 -d -1 -p CTS -e 38 -c 2 -a 0 -i 0 -k MAC -R 3000.000000
v -t 53.526477896 -e sim_annotation 53.526477896 68 node 14 sendout packet (CTS) 0
+ -t 54.076608356 -s 3 -d -1 -p RTS -e 44 -c 2 -a 0 -i 0 -k MAC 
- -t 54.076608356 -s 3 -d -1 -p RTS -e 44 -c 2 -a 0 -i 0 -k MAC
h -t 54.076608356 -s 3 -d -1 -p RTS -e 44 -c 2 -a 0 -i 0 -k MAC -R 3000.000000
v -t 54.076608356 -e sim_annotation 54.076608356 69 node 3 sendout packet (RTS) 0
r -t 54.335744438 -s 12 -d -1 -p RTS -e 44 -c 2 -a 0 -i 0 -k MAC -R 3000.000000
v -t 54.335744438 -e sim_annotation 54.335744438 70 node 12 receive packet(RTS) 0
+ -t 54.435744438 -s 12 -d -1 -p CTS -e 38 -c 2 -a 0 -i 0 -k MAC 
- -t 54.435744438 -s 12 -d -1 -p CTS -e 38 -c 2 -a 0 -i 0 -k MAC
h -t 54.435744438 -s 12 -d -1 -p CTS -e 38 -c 2 -a 0 -i 0 -k MAC -R 3000.000000
v -t 54.435744438 -e sim_annotation 54.435744438 71 node 12 sendout packet (CTS) 0
r -t 54.532877838 -s 8 -d -1 -p CTS -e 38 -c 2 -a 0 -i 0 -k MAC -R 3000.000000
v -t 54.532877838 -e sim_annotation 54.532877838 72 node 8 receive packet(CTS) 0
+ -t 54.632877838 -s 8 -d -1 -p vectorbasedforward -e 352 -c 2 -a 0 -i 10 -k MAC 
- -t 54.632877838 -s 8 -d -1 -p vectorbasedforward -e 352 -c 2 -a 0 -i 10 -k MAC
h -t 54.632877838 -s 8 -d -1 -p vectorbasedforward -e 352 -c 2 -a 0 -i 10 -k MAC -R 3000.000000
v -t 54.632877838 -e sim_annotation 54.632877838 73 node 8 sendout packet (vectorbasedforward) 10
d -t 55.134850542 -s 12 -d -1 -p RTS -e 44 -c 2 -a 0 -i 0 -k MAC
v -t 55.134850542 -e sim_annotation 55.134850542 74 node 12 drop packet(RTS) 0
n -t 55.409941689 -s 0 -S COLOR -c red -o yellow
d -t 55.409941689 -s 0 -d -1 -p CTS -e 38 -c 2 -a 0 -i 0 -k MAC
v -t 55.409941689 -e sim_annotation 55.409941689 75 node 0 drop packet(CTS) 0
r -t 56.110372998 -s 13 -d -1 -p vectorbasedforward -e 300 -c 2 -a 0 -i 8 -k MAC -R 3000.000000
v -t 56.110372998 -e sim_annotation 56.110372998 76 node 13 receive packet(vectorbasedforward) 8
+ -t 56.210372998 -s 13 -d -1 -p ACK -e 38 -c 2 -a 0 -i 0 -k MAC 
- -t 56.210372998 -s 13 -d -1 -p ACK -e 38 -c 2 -a 0 -i 0 -k MAC
h -t 56.210372998 -s 13 -d -1 -p ACK -e 38 -c 2 -a 0 -i 0 -k MAC -R 3000.000000
v -t 56.210372998 -e sim_annotation 56.210372998 77 node 13 sendout packet (ACK) 0
r -t 57.218236323 -s 9 -d -1 -p ACK -e 38 -c 2 -a 0 -i 0 -k MAC -R 3000.000000
v -t 57.218236323 -e sim_annotation 57.218236323 78 node 9 receive packet(ACK) 0
+ -t 57.918236323 -s 9 -d -1 -p RTS -e 44 -c 2 -a 0 -i 0 -k MAC 
- -t 57.918236323 -s 9 -d -1 -p RTS -e 44 -c 2 -a 0 -i 0 -k MAC
h -t 57.918236323 -s 9 -d -1 -p RTS -e 44 -c 2 -a 0 -i 0 -k MAC -R 3000.000000
v -t 57.918236323 -e sim_annotation 57.918236323 79 node 9 sendout packet (RTS) 0
r -t 58.150049882 -s 14 -d -1 -p vectorbasedforward -e 300 -c 2 -a 0 -i 10 -k MAC -R 3000.000000
v -t 58.150049882 -e sim_annotation 58.150049882 80 node 14 receive packet(vectorbasedforward) 10
+ -t 58.250049882 -s 14 -d -1 -p ACK -e 38 -c 2 -a 0 -i 0 -k MAC 
- -t 58.250049882 -s 14 -d -1 -p ACK -e 38 -c 2 -a 0 -i 0 -k MAC
h -t 58.250049882 -s 14 -d -1 -p ACK -e 38 -c 2 -a 0 -i 0 -k MAC -R 3000.000000
v -t 58.250049882 -e sim_annotation 58.250049882 81 node 14 sendout packet (ACK) 0
r -t 58.972201244 -s 13 -d -1 -p RTS -e 44 -c 2 -a 0 -i 0 -k MAC -R 3000.000000
v -t 58.972201244 -e sim_annotation 58.972201244 82 node 13 receive packet(RTS) 0
+ -t 59.072201244 -s 13 -d -1 -p CTS -e 38 -c 2 -a 0 -i 0 -k MAC 
- -t 59.072201244 -s 13 -d -1 -p CTS -e 38 -c 2 -a 0 -i 0 -k MAC
h -t 59.072201244 -s 13 -d -1 -p CTS -e 38 -c 2 -a 0 -i 0 -k MAC -R 3000.000000
v -t 59.072201244 -e sim_annotation 59.072201244 83 node 13 sendout packet (CTS) 0
r -t 59.251222395 -s 8 -d -1 -p ACK -e 38 -c 2 -a 0 -i 0 -k MAC -R 3000.000000
v -t 59.251222395 -e sim_annotation 59.251222395 84 node 8 receive packet(ACK) 0
+ -t 59.951222395 -s 5 -d -1 -p RTS -e 44 -c 2 -a 0 -i 0 -k MAC 
- -t 59.951222395 -s 5 -d -1 -p RTS -e 44 -c 2 -a 0 -i 0 -k MAC
h -t 59.951222395 -s 5 -d -1 -p RTS -e 44 -c 2 -a 0 -i 0 -k MAC -R 3000.000000
v -t 59.951222395 -e sim_annotation 59.951222395 85 node 5 sendout packet (RTS) 0
r -t 60.076886309 -s 9 -d -1 -p CTS -e 38 -c 2 -a 0 -i 0 -k MAC -R 3000.000000
v -t 60.076886309 -e sim_annotation 60.076886309 86 node 9 receive packet(CTS) 0
+ -t 60.176886309 -s 9 -d -1 -p vectorbasedforward -e 352 -c 2 -a 0 -i 14 -k MAC 
- -t 60.176886309 -s 9 -d -1 -p vectorbasedforward -e 352 -c 2 -a 0 -i 14 -k MAC
h -t 60.176886309 -s 9 -d -1 -p vectorbasedforward -e 352 -c 2 -a 0 -i 14 -k MAC -R 3000.000000
v -t 60.176886309 -e sim_annotation 60.176886309 87 node 9 sendout packet (vectorbasedforward) 14
r -t 60.998521842 -s 14 -d -1 -p RTS -e 44 -c 2 -a 0 -i 0 -k MAC -R 3000.000000
v -t 60.998521842 -e sim_annotation 60.998521842 88 node 14 receive packet(RTS) 0
+ -t 61.098521842 -s 14 -d -1 -p CTS -e 38 -c 2 -a 0 -i 0 -k MAC 
- -t 61.098521842 -s 14 -d -1 -p CTS -e 38 -c 2 -a 0 -i 0 -k MAC
h -t 61.098521842 -s 14 -d -1 -p CTS -e 38 -c 2 -a 0 -i 0 -k MAC -R 3000.000000
v -t 61.098521842 -e sim_annotation 61.098521842 89 node 14 sendout packet (CTS) 0
+ -t 61.548992356 -s 0 -d -1 -p RTS -e 44 -c 2 -a 0 -i 0 -k MAC 
- -t 61.548992356 -s 0 -d -1 -p RTS -e 44 -c 2 -a 0 -i 0 -k MAC
h -t 61.548992356 -s 0 -d -1 -p RTS -e 44 -c 2 -a 0 -i 0 -k MAC -R 3000.000000
v -t 61.548992356 -e sim_annotation 61.548992356 90 node 0 sendout packet (RTS) 0
r -t 62.096560949 -s 5 -d -1 -p CTS -e 38 -c 2 -a 0 -i 0 -k MAC -R 3000.000000
v -t 62.096560949 -e sim_annotation 62.096560949 91 node 5 receive packet(CTS) 0
+ -t 62.196560949 -s 5 -d -1 -p vectorbasedforward -e 352 -c 2 -a 0 -i 9 -k MAC 
- -t 62.196560949 -s 5 -d -1 -p vectorbasedforward -e 352 -c 2 -a 0 -i 9 -k MAC
h -t 62.196560949 -s 5 -d -1 -p vectorbasedforward -e 352 -c 2 -a 0 -i 9 -k MAC -R 3000.000000
v -t 62.196560949 -e sim_annotation 62.196560949 92 node 5 sendout packet (vectorbasedforward) 9
r -t 62.598938247 -s 12 -d -1 -p RTS -e 44 -c 2 -a 0 -i 0 -k MAC -R 3000.000000
v -t 62.598938247 -e sim_annotation 62.598938247 93 node 12 receive packet(RTS) 0
+ -t 62.698938247 -s 12 -d -1 -p CTS -e 38 -c 2 -a 0 -i 0 -k MAC 
- -t 62.698938247 -s 12 -d -1 -p CTS -e 38 -c 2 -a 0 -i 0 -k MAC
h -t 62.698938247 -s 12 -d -1 -p CTS -e 38 -c 2 -a 0 -i 0 -k MAC -R 3000.000000
v -t 62.698938247 -e sim_annotation 62.698938247 94 node 12 sendout packet (CTS) 0
+ -t 62.748992356 -s 3 -d -1 -p RTS -e 44 -c 2 -a 0 -i 0 -k MAC 
- -t 62.748992356 -s 3 -d -1 -p RTS -e 44 -c 2 -a 0 -i 0 -k MAC
h -t 62.748992356 -s 3 -d -1 -p RTS -e 44 -c 2 -a 0 -i 0 -k MAC -R 3000.000000
v -t 62.748992356 -e sim_annotation 62.748992356 95 node 3 sendout packet (RTS) 0
r -t 63.692348340 -s 13 -d -1 -p vectorbasedforward -e 300 -c 2 -a 0 -i 14 -k MAC -R 3000.000000
v -t 63.692348340 -e sim_annotation 63.692348340 96 node 13 receive packet(vectorbasedforward) 14
r -t 63.699616019 -s 0 -d -1 -p CTS -e 38 -c 2 -a 0 -i 0 -k MAC -R 3000.000000
v -t 63.699616019 -e sim_annotation 63.699616019 97 node 0 receive packet(CTS) 0
+ -t 63.792348340 -s 13 -d -1 -p ACK -e 38 -c 2 -a 0 -i 0 -k MAC 
- -t 63.792348340 -s 13 -d -1 -p ACK -e 38 -c 2 -a 0 -i 0 -k MAC
h -t 63.792348340 -s 13 -d -1 -p ACK -e 38 -c 2 -a 0 -i 0 -k MAC -R 3000.000000
v -t 63.792348340 -e sim_annotation 63.792348340 98 node 13 sendout packet (ACK) 0
d -t 63.797614983 -s 12 -d -1 -p RTS -e 44 -c 2 -a 0 -i 0 -k MAC
v -t 63.797614983 -e sim_annotation 63.797614983 99 node 12 drop packet(RTS) 0
+ -t 63.799616019 -s 0 -d -1 -p vectorbasedforward -e 352 -c 2 -a 0 -i 11 -k MAC 
- -t 63.799616019 -s 0 -d -1 -p vectorbasedforward -e 352 -c 2 -a 0 -i 11 -k MAC
h -t 63.799616019 -s 0 -d -1 -p vectorbasedforward -e 352 -c 2 -a 0 -i 11 -k MAC -R 3000.000000
v -t 63.799616019 -e sim_annotation 63.799616019 100 node 0 sendout packet (vectorbasedforward) 11
r -t 64.791822498 -s 9 -d -1 -p ACK -e 38 -c 2 -a 0 -i 0 -k MAC -R 3000.000000
v -t 64.791822498 -e sim_annotation 64.791822498 101 node 9 receive packet(ACK) 0
r -t 65.705396018 -s 14 -d -1 -p vectorbasedforward -e 300 -c 2 -a 0 -i 9 -k MAC -R 3000.000000
v -t 65.705396018 -e sim_annotation 65.705396018 102 node 14 receive packet(vectorbasedforward) 9
+ -t 65.805396018 -s 14 -d -1 -p ACK -e 38 -c 2 -a 0 -i 0 -k MAC 
- -t 65.805396018 -s 14 -d -1 -p ACK -e 38 -c 2 -a 0 -i 0 -k MAC
h -t 65.805396018 -s 14 -d -1 -p ACK -e 38 -c 2 -a 0 -i 0 -k MAC -R 3000.000000
v -t 65.805396018 -e sim_annotation 65.805396018 103 node 14 sendout packet (ACK) 0
r -t 66.798289071 -s 5 -d -1 -p ACK -e 38 -c 2 -a 0 -i 0 -k MAC -R 3000.000000
v -t 66.798289071 -e sim_annotation 66.798289071 104 node 5 receive packet(ACK) 0
r -t 67.311082184 -s 12 -d -1 -p vectorbasedforward -e 300 -c 2 -a 0 -i 11 -k MAC -R 3000.000000
v -t 67.311082184 -e sim_annotation 67.311082184 105 node 12 receive packet(vectorbasedforward) 11
+ -t 67.411082184 -s 12 -d -1 -p ACK -e 38 -c 2 -a 0 -i 0 -k MAC 
- -t 67.411082184 -s 12 -d -1 -p ACK -e 38 -c 2 -a 0 -i 0 -k MAC
h -t 67.411082184 -s 12 -d -1 -p ACK -e 38 -c 2 -a 0 -i 0 -k MAC -R 3000.000000
v -t 67.411082184 -e sim_annotation 67.411082184 106 node 12 sendout packet (ACK) 0
+ -t 68.091822498 -s 6 -d -1 -p RTS -e 44 -c 2 -a 0 -i 0 -k MAC 
- -t 68.091822498 -s 6 -d -1 -p RTS -e 44 -c 2 -a 0 -i 0 -k MAC
h -t 68.091822498 -s 6 -d -1 -p RTS -e 44 -c 2 -a 0 -i 0 -k MAC -R 3000.000000
v -t 68.091822498 -e sim_annotation 68.091822498 107 node 6 sendout packet (RTS) 0
r -t 68.406587995 -s 0 -d -1 -p ACK -e 38 -c 2 -a 0 -i 0 -k MAC -R 3000.000000
v -t 68.406587995 -e sim_annotation 68.406587995 108 node 0 receive packet(ACK) 0
r -t 69.134584412 -s 13 -d -1 -p RTS -e 44 -c 2 -a 0 -i 0 -k MAC -R 3000.000000
v -t 69.134584412 -e sim_annotation 69.134584412 109 node 13 receive packet(RTS) 0
+ -t 69.234584412 -s 13 -d -1 -p CTS -e 38 -c 2 -a 0 -i 0 -k MAC 
- -t 69.234584412 -s 13 -d -1 -p CTS -e 38 -c 2 -a 0 -i 0 -k MAC
h -t 69.234584412 -s 13 -d -1 -p CTS -e 38 -c 2 -a 0 -i 0 -k MAC -R 3000.000000
v -t 69.234584412 -e sim_annotation 69.234584412 110 node 13 sendout packet (CTS) 0
+ -t 69.817588018 -s 14 -d -1 -p vectorbasedforward -e 60 -c 2 -a 0 -i 15 -k MAC 
- -t 69.817588018 -s 14 -d -1 -p vectorbasedforward -e 60 -c 2 -a 0 -i 15 -k MAC
h -t 69.817588018 -s 14 -d -1 -p vectorbasedforward -e 60 -c 2 -a 0 -i 15 -k MAC -R 3000.000000
v -t 69.817588018 -e sim_annotation 69.817588018 111 node 14 sendout packet (vectorbasedforward) 15
r -t 70.228099417 -s 6 -d -1 -p CTS -e 38 -c 2 -a 0 -i 0 -k MAC -R 3000.000000
v -t 70.228099417 -e sim_annotation 70.228099417 112 node 6 receive packet(CTS) 0
+ -t 70.328099417 -s 6 -d -1 -p vectorbasedforward -e 352 -c 2 -a 0 -i 13 -k MAC 
- -t 70.328099417 -s 6 -d -1 -p vectorbasedforward -e 352 -c 2 -a 0 -i 13 -k MAC
h -t 70.328099417 -s 6 -d -1 -p vectorbasedforward -e 352 -c 2 -a 0 -i 13 -k MAC -R 3000.000000
v -t 70.328099417 -e sim_annotation 70.328099417 113 node 6 sendout packet (vectorbasedforward) 13
+ -t 70.423274184 -s 12 -d -1 -p vectorbasedforward -e 60 -c 2 -a 0 -i 17 -k MAC 
- -t 70.423274184 -s 12 -d -1 -p vectorbasedforward -e 60 -c 2 -a 0 -i 17 -k MAC
h -t 70.423274184 -s 12 -d -1 -p vectorbasedforward -e 60 -c 2 -a 0 -i 17 -k MAC -R 3000.000000