vectorbased
M 0.0 nn 15 x 10000 y 7000 z 0
M 0.0 prop Propagation/UnderwaterPropagation ant Antenna/OmniAntenna
M 15.10000 12 (2000.00, 6000.00, 0.00), (2000.00, 10.00), 2.50
M 15.10000 13 (6000.00, 6000.00, 0.00), (6000.00, 10.00), 2.50
M 15.10000 14 (4000.00, 10.00, 0.00), (4000.00, 6000.00), 2.50
M 15.10000 12 (2000.00, 6000.00, 0.00), (2000.00, 10.00), 2.50
M 15.10000 13 (6000.00, 6000.00, 0.00), (6000.00, 10.00), 2.50
M 15.10000 14 (4000.00, 10.00, 0.00), (4000.00, 6000.00), 2.50
s 16.900025000 _14_ MAC  --- 0 vectorbasedforward 60 [0 ffffffff e 800] [energy 199996.800000 ei 3.200 es 0.000 et 0.000 er 0.000] ------- [60:60 0:0 0 0] 
M 15.10000 12 (2000.00, 6000.00, 0.00), (2000.00, 10.00), 2.50
M 15.10000 13 (6000.00, 6000.00, 0.00), (6000.00, 10.00), 2.50
M 15.10000 14 (4000.00, 10.00, 0.00), (4000.00, 6000.00), 2.50
M 15.10000 12 (2000.00, 6000.00, 0.00), (2000.00, 10.00), 2.50
M 15.10000 13 (6000.00, 6000.00, 0.00), (6000.00, 10.00), 2.50
M 15.10000 14 (4000.00, 10.00, 0.00), (4000.00, 6000.00), 2.50
r 18.124215606 _5_ MAC  --- 0 vectorbasedforward 60 [0 ffffffff e 800] [energy 199996.144603 ei 3.567 es 0.000 et 0.000 er 0.288] ------- [60:60 0:0 0 0] 
r 18.124215606 _8_ MAC  --- 0 vectorbasedforward 60 [0 ffffffff e 800] [energy 199996.144603 ei 3.567 es 0.000 et 0.000 er 0.288] ------- [60:60 0:0 0 0] 
s 18.900025000 _12_ MAC  --- 2 vectorbasedforward 60 [0 ffffffff c 800] [energy 199996.400000 ei 3.600 es 0.000 et 0.000 er 0.000] ------- [60:60 2:0 0 0] 
M 15.10000 12 (2000.00, 6000.00, 0.00), (2000.00, 10.00), 2.50
M 15.10000 13 (6000.00, 6000.00, 0.00), (6000.00, 10.00), 2.50
M 15.10000 14 (4000.00, 10.00, 0.00), (4000.00, 6000.00), 2.50
s 19.300025000 _13_ MAC  --- 1 vectorbasedforward 60 [0 ffffffff d 800] [energy 199996.200000 ei 3.800 es 0.000 et 0.000 er 0.000] ------- [60:60 1:0 0 0] 
M 15.10000 12 (2000.00, 6000.00, 0.00), (2000.00, 10.00), 2.50
M 15.10000 13 (6000.00, 6000.00, 0.00), (6000.00, 10.00), 2.50
M 15.10000 14 (4000.00, 10.00, 0.00), (4000.00, 6000.00), 2.50
r 20.126558356 _0_ MAC  --- 2 vectorbasedforward 60 [0 ffffffff c 800] [energy 199995.744135 ei 3.968 es 0.000 et 0.000 er 0.288] ------- [60:60 2:0 0 0] 
r 20.126558356 _3_ MAC  --- 2 vectorbasedforward 60 [0 ffffffff c 800] [energy 199995.744135 ei 3.968 es 0.000 et 0.000 er 0.288] ------- [60:60 2:0 0 0] 
r 20.526089326 _6_ MAC  --- 1 vectorbasedforward 60 [0 ffffffff d 800] [energy 199995.664229 ei 4.048 es 0.000 et 0.000 er 0.288] ------- [60:60 1:0 0 0] 
r 20.526089326 _9_ MAC  --- 1 vectorbasedforward 60 [0 ffffffff d 800] [energy 199995.664229 ei 4.048 es 0.000 et 0.000 er 0.288] ------- [60:60 1:0 0 0] 
M 15.10000 12 (2000.00, 6000.00, 0.00), (2000.00, 10.00), 2.50
M 15.10000 13 (6000.00, 6000.00, 0.00), (6000.00, 10.00), 2.50
M 15.10000 14 (4000.00, 10.00, 0.00), (4000.00, 6000.00), 2.50
M 15.10000 12 (2000.00, 6000.00, 0.00), (2000.00, 10.00), 2.50
M 15.10000 13 (6000.00, 6000.00, 0.00), (6000.00, 10.00), 2.50
M 15.10000 14 (4000.00, 10.00, 0.00), (4000.00, 6000.00), 2.50
s 22.824265606 _8_ MAC  --- 0 RTS 44 [b20 e 8 0] [energy 199995.369446 ei 4.342 es 0.000 et 0.000 er 0.288] 
M 15.10000 12 (2000.00, 6000.00, 0.00), (2000.00, 10.00), 2.50
M 15.10000 13 (6000.00, 6000.00, 0.00), (6000.00, 10.00), 2.50
M 15.10000 14 (4000.00, 10.00, 0.00), (4000.00, 6000.00), 2.50
s 23.024265606 _5_ MAC  --- 0 RTS 44 [b20 e 5 0] [energy 199995.169446 ei 4.542 es 0.000 et 0.000 er 0.288] 
s 23.826139326 _6_ MAC  --- 0 RTS 44 [b20 d 6 0] [energy 199995.169446 ei 4.542 es 0.000 et 0.000 er 0.288] 
r 23.913552216 _14_ MAC  --- 0 RTS 44 [b20 e 8 0] [energy 199986.501014 ei 4.693 es 0.000 et 8.646 er 0.160] 
M 15.10000 12 (2000.00, 6000.00, 0.00), (2000.00, 10.00), 2.50
M 15.10000 13 (6000.00, 6000.00, 0.00), (6000.00, 10.00), 2.50
M 15.10000 14 (4000.00, 10.00, 0.00), (4000.00, 6000.00), 2.50
r 24.113320075 _14_ MAC  --- 0 RTS 44 [b20 e 5 0] [energy 199986.332907 ei 4.701 es 0.000 et 8.646 er 0.320] 
s 24.213320075 _14_ MAC  --- 0 CTS 38 [ce40 5 0 0] [energy 199986.332907 ei 4.701 es 0.000 et 8.646 er 0.320] 
s 24.626608356 _3_ MAC  --- 0 RTS 44 [b20 c 3 0] [energy 199994.969446 ei 4.742 es 0.000 et 0.000 er 0.288] 
r 24.918913217 _13_ MAC  --- 0 RTS 44 [b20 d 6 0] [energy 199986.299942 ei 4.894 es 0.000 et 8.646 er 0.160] 
M 15.10000 12 (2000.00, 6000.00, 0.00), (2000.00, 10.00), 2.50
M 15.10000 13 (6000.00, 6000.00, 0.00), (6000.00, 10.00), 2.50
M 15.10000 14 (4000.00, 10.00, 0.00), (4000.00, 6000.00), 2.50
s 25.018913217 _13_ MAC  --- 0 CTS 38 [ce40 6 0 0] [energy 199986.283725 ei 4.910 es 0.000 et 8.646 er 0.160] 
s 25.226608356 _0_ MAC  --- 0 RTS 44 [b20 c 0 0] [energy 199994.769446 ei 4.942 es 0.000 et 0.000 er 0.288] 
r 25.252995683 _5_ MAC  --- 0 CTS 38 [ce40 5 0 0] [energy 199989.727218 ei 4.906 es 0.000 et 4.806 er 0.561] 
s 25.352995683 _5_ MAC  --- 3 vectorbasedforward 352 [3ce0 e 5 800] [energy 199989.727218 ei 4.906 es 0.000 et 4.806 er 0.561] ------- [60:352 3:0 0 0] 
r 25.718449834 _12_ MAC  --- 0 RTS 44 [b20 c 3 0] [energy 199986.140035 ei 5.054 es 0.000 et 8.646 er 0.160] 
s 25.818449834 _12_ MAC  --- 0 CTS 38 [ce40 3 0 0] [energy 199986.140035 ei 5.054 es 0.000 et 8.646 er 0.160] 
D 25.959941689 _6_ MAC  COL 0 CTS 38 [ce40 6 0 0] [energy 199989.635676 ei 5.100 es 0.000 et 4.806 er 0.458] 
M 15.10000 12 (2000.00, 6000.00, 0.00), (2000.00, 10.00), 2.50
M 15.10000 13 (6000.00, 6000.00, 0.00), (6000.00, 10.00), 2.50
M 15.10000 14 (4000.00, 10.00, 0.00), (4000.00, 6000.00), 2.50
D 26.317751574 _12_ MAC  BSY 0 RTS 44 [b20 c 0 0] [energy 199982.548699 ei 5.119 es 0.000 et 12.012 er 0.320] 
r 26.860904827 _3_ MAC  --- 0 CTS 38 [ce40 3 0 0] [energy 199989.277483 ei 5.196 es 0.000 et 4.806 er 0.721] 
s 26.960904827 _3_ MAC  --- 6 vectorbasedforward 352 [3ce0 c 3 800] [energy 199989.277483 ei 5.196 es 0.000 et 4.806 er 0.721] ------- [60:352 6:0 0 0] 
M 15.10000 12 (2000.00, 6000.00, 0.00), (2000.00, 10.00), 2.50
M 15.10000 13 (6000.00, 6000.00, 0.00), (6000.00, 10.00), 2.50
M 15.10000 14 (4000.00, 10.00, 0.00), (4000.00, 6000.00), 2.50
s 27.815098082 _9_ MAC  --- 0 RTS 44 [b20 d 9 0] [energy 199994.151539 ei 5.288 es 0.000 et 0.000 er 0.561] 
M 15.10000 12 (2000.00, 6000.00, 0.00), (2000.00, 10.00), 2.50
M 15.10000 13 (6000.00, 6000.00, 0.00), (6000.00, 10.00), 2.50
M 15.10000 14 (4000.00, 10.00, 0.00), (4000.00, 6000.00), 2.50
D 28.903235236 _13_ MAC  BSY 0 RTS 44 [b20 d 9 0] [energy 199982.031603 ei 5.636 es 0.000 et 12.012 er 0.320] 
r 28.903351742 _14_ MAC  --- 3 vectorbasedforward 300 [3ce0 e 5 800] [energy 199979.932226 ei 5.112 es 0.000 et 12.012 er 2.945] ------- [60:300 3:0 0 0] 
M 15.10000 12 (2000.00, 6000.00, 0.00), (2000.00, 10.00), 2.50
M 15.10000 13 (6000.00, 6000.00, 0.00), (6000.00, 10.00), 2.50
M 15.10000 14 (4000.00, 10.00, 0.00), (4000.00, 6000.00), 2.50
s 29.003351742 _14_ MAC  --- 0 ACK 38 [0 5 0 0] [energy 199979.912896 ei 5.131 es 0.000 et 12.012 er 2.945] 
M 15.10000 12 (2000.00, 6000.00, 0.00), (2000.00, 10.00), 2.50
M 15.10000 13 (6000.00, 6000.00, 0.00), (6000.00, 10.00), 2.50
M 15.10000 14 (4000.00, 10.00, 0.00), (4000.00, 6000.00), 2.50
r 30.037494947 _5_ MAC  --- 0 ACK 38 [0 5 0 0] [energy 199910.479643 ei 5.316 es 0.000 et 83.532 er 0.673] 
r 30.514032833 _12_ MAC  --- 6 vectorbasedforward 300 [3ce0 c 3 800] [energy 199979.610089 ei 5.434 es 0.000 et 12.012 er 2.945] ------- [60:300 6:0 0 0] 
s 30.614032833 _12_ MAC  --- 0 ACK 38 [0 3 0 0] [energy 199979.610089 ei 5.434 es 0.000 et 12.012 er 2.945] 
M 15.10000 12 (2000.00, 6000.00, 0.00), (2000.00, 10.00), 2.50
M 15.10000 13 (6000.00, 6000.00, 0.00), (6000.00, 10.00), 2.50
M 15.10000 14 (4000.00, 10.00, 0.00), (4000.00, 6000.00), 2.50
r 31.650931181 _3_ MAC  --- 0 ACK 38 [0 3 0 0] [energy 199910.028803 ei 5.607 es 0.000 et 83.532 er 0.833] 
M 15.10000 12 (2000.00, 6000.00, 0.00), (2000.00, 10.00), 2.50
M 15.10000 13 (6000.00, 6000.00, 0.00), (6000.00, 10.00), 2.50
M 15.10000 14 (4000.00, 10.00, 0.00), (4000.00, 6000.00), 2.50
M 15.10000 12 (2000.00, 6000.00, 0.00), (2000.00, 10.00), 2.50
M 15.10000 13 (6000.00, 6000.00, 0.00), (6000.00, 10.00), 2.50
M 15.10000 14 (4000.00, 10.00, 0.00), (4000.00, 6000.00), 2.50
s 33.828910160 _6_ MAC  --- 0 RTS 44 [b20 d 6 0] [energy 199986.160349 ei 5.951 es 0.000 et 4.806 er 3.082] 
M 15.10000 12 (2000.00, 6000.00, 0.00), (2000.00, 10.00), 2.50
M 15.10000 13 (6000.00, 6000.00, 0.00), (6000.00, 10.00), 2.50
M 15.10000 14 (4000.00, 10.00, 0.00), (4000.00, 6000.00), 2.50
r 34.910103493 _13_ MAC  --- 0 RTS 44 [b20 d 6 0] [energy 199980.702075 ei 6.806 es 0.000 et 12.012 er 0.481] 
M 15.10000 12 (2000.00, 6000.00, 0.00), (2000.00, 10.00), 2.50
M 15.10000 13 (6000.00, 6000.00, 0.00), (6000.00, 10.00), 2.50
M 15.10000 14 (4000.00, 10.00, 0.00), (4000.00, 6000.00), 2.50
s 35.010103493 _13_ MAC  --- 0 CTS 38 [ce40 6 0 0] [energy 199980.684096 ei 6.824 es 0.000 et 12.012 er 0.481] 
M 15.10000 12 (2000.00, 6000.00, 0.00), (2000.00, 10.00), 2.50
M 15.10000 13 (6000.00, 6000.00, 0.00), (6000.00, 10.00), 2.50
M 15.10000 14 (4000.00, 10.00, 0.00), (4000.00, 6000.00), 2.50
r 36.041939642 _6_ MAC  --- 0 CTS 38 [ce40 6 0 0] [energy 199980.688486 ei 6.505 es 0.000 et 9.612 er 3.195] 
s 36.141939642 _6_ MAC  --- 7 vectorbasedforward 352 [3ce0 d 6 800] [energy 199980.688486 ei 6.505 es 0.000 et 9.612 er 3.195] ------- [60:352 7:0 0 0] 
M 15.10000 12 (2000.00, 6000.00, 0.00), (2000.00, 10.00), 2.50
M 15.10000 13 (6000.00, 6000.00, 0.00), (6000.00, 10.00), 2.50
M 15.10000 14 (4000.00, 10.00, 0.00), (4000.00, 6000.00), 2.50
M 15.10000 12 (2000.00, 6000.00, 0.00), (2000.00, 10.00), 2.50
M 15.10000 13 (6000.00, 6000.00, 0.00), (6000.00, 10.00), 2.50
M 15.10000 14 (4000.00, 10.00, 0.00), (4000.00, 6000.00), 2.50
M 15.10000 12 (2000.00, 6000.00, 0.00), (2000.00, 10.00), 2.50
M 15.10000 13 (6000.00, 6000.00, 0.00), (6000.00, 10.00), 2.50
M 15.10000 14 (4000.00, 10.00, 0.00), (4000.00, 6000.00), 2.50
r 39.684477394 _13_ MAC  --- 7 vectorbasedforward 300 [3ce0 d 6 800] [energy 199974.304525 ei 7.213 es 0.000 et 15.377 er 3.105] ------- [60:300 7:0 0 0] 
s 39.784477394 _13_ MAC  --- 0 ACK 38 [0 6 0 0] [energy 199974.304525 ei 7.213 es 0.000 et 15.377 er 3.105] 
M 15.10000 12 (2000.00, 6000.00, 0.00), (2000.00, 10.00), 2.50
M 15.10000 13 (6000.00, 6000.00, 0.00), (6000.00, 10.00), 2.50
M 15.10000 14 (4000.00, 10.00, 0.00), (4000.00, 6000.00), 2.50
s 40.537494947 _8_ MAC  --- 0 RTS 44 [b20 e 8 0] [energy 199984.588710 ei 7.309 es 0.000 et 4.806 er 3.297] 
r 40.810850481 _6_ MAC  --- 0 ACK 38 [0 6 0 0] [energy 199901.444029 ei 6.912 es 0.000 et 88.337 er 3.307] 
M 15.10000 12 (2000.00, 6000.00, 0.00), (2000.00, 10.00), 2.50
M 15.10000 13 (6000.00, 6000.00, 0.00), (6000.00, 10.00), 2.50
M 15.10000 14 (4000.00, 10.00, 0.00), (4000.00, 6000.00), 2.50
r 41.606465997 _14_ MAC  --- 0 RTS 44 [b20 e 8 0] [energy 199973.920128 ei 7.598 es 0.000 et 15.377 er 3.105] 
s 41.706465997 _14_ MAC  --- 0 CTS 38 [ce40 8 0 0] [energy 199973.920128 ei 7.598 es 0.000 et 15.377 er 3.105] 
M 15.10000 12 (2000.00, 6000.00, 0.00), (2000.00, 10.00), 2.50
M 15.10000 13 (6000.00, 6000.00, 0.00), (6000.00, 10.00), 2.50
M 15.10000 14 (4000.00, 10.00, 0.00), (4000.00, 6000.00), 2.50
s 42.550931181 _0_ MAC  --- 0 RTS 44 [b20 c 0 0] [energy 199984.188710 ei 7.709 es 0.000 et 4.806 er 3.297] 
r 42.726114122 _8_ MAC  --- 0 CTS 38 [ce40 8 0 0] [energy 199979.180012 ei 7.799 es 0.000 et 9.612 er 3.409] 
s 42.826114122 _8_ MAC  --- 4 vectorbasedforward 352 [3ce0 e 8 800] [energy 199979.180012 ei 7.799 es 0.000 et 9.612 er 3.409] ------- [60:352 4:0 0 0] 
M 15.10000 12 (2000.00, 6000.00, 0.00), (2000.00, 10.00), 2.50
M 15.10000 13 (6000.00, 6000.00, 0.00), (6000.00, 10.00), 2.50
M 15.10000 14 (4000.00, 10.00, 0.00), (4000.00, 6000.00), 2.50
r 43.622155576 _12_ MAC  --- 0 RTS 44 [b20 c 0 0] [energy 199973.516990 ei 8.001 es 0.000 et 15.377 er 3.105] 
s 43.722155576 _12_ MAC  --- 0 CTS 38 [ce40 0 0 0] [energy 199973.516990 ei 8.001 es 0.000 et 15.377 er 3.105] 
M 15.10000 12 (2000.00, 6000.00, 0.00), (2000.00, 10.00), 2.50
M 15.10000 13 (6000.00, 6000.00, 0.00), (6000.00, 10.00), 2.50
M 15.10000 14 (4000.00, 10.00, 0.00), (4000.00, 6000.00), 2.50
r 44.744050677 _0_ MAC  --- 0 CTS 38 [ce40 0 0 0] [energy 199978.776425 ei 8.203 es 0.000 et 9.612 er 3.409] 
s 44.844050677 _0_ MAC  --- 5 vectorbasedforward 352 [3ce0 c 0 800] [energy 199978.776425 ei 8.203 es 0.000 et 9.612 er 3.409] ------- [60:352 5:0 0 0] 
M 15.10000 12 (2000.00, 6000.00, 0.00), (2000.00, 10.00), 2.50
M 15.10000 13 (6000.00, 6000.00, 0.00), (6000.00, 10.00), 2.50
M 15.10000 14 (4000.00, 10.00, 0.00), (4000.00, 6000.00), 2.50
M 15.10000 12 (2000.00, 6000.00, 0.00), (2000.00, 10.00), 2.50
M 15.10000 13 (6000.00, 6000.00, 0.00), (6000.00, 10.00), 2.50
M 15.10000 14 (4000.00, 10.00, 0.00), (4000.00, 6000.00), 2.50
r 46.356497258 _14_ MAC  --- 4 vectorbasedforward 300 [3ce0 e 8 800] [energy 199967.527446 ei 8.001 es 0.000 et 18.743 er 5.729] ------- [60:300 4:0 0 0] 
s 46.456497258 _14_ MAC  --- 0 ACK 38 [0 8 0 0] [energy 199967.527446 ei 8.001 es 0.000 et 18.743 er 5.729] 
M 15.10000 12 (2000.00, 6000.00, 0.00), (2000.00, 10.00), 2.50
M 15.10000 13 (6000.00, 6000.00, 0.00), (6000.00, 10.00), 2.50
M 15.10000 14 (4000.00, 10.00, 0.00), (4000.00, 6000.00), 2.50
r 47.470793102 _8_ MAC  --- 0 ACK 38 [0 8 0 0] [energy 199899.940401 ei 8.201 es 0.000 et 88.337 er 3.521] 
M 15.10000 12 (2000.00, 6000.00, 0.00), (2000.00, 10.00), 2.50
M 15.10000 13 (6000.00, 6000.00, 0.00), (6000.00, 10.00), 2.50
M 15.10000 14 (4000.00, 10.00, 0.00), (4000.00, 6000.00), 2.50
r 48.376674580 _12_ MAC  --- 5 vectorbasedforward 300 [3ce0 c 0 800] [energy 199967.123411 ei 8.405 es 0.000 et 18.743 er 5.729] ------- [60:300 5:0 0 0] 
s 48.476674580 _12_ MAC  --- 0 ACK 38 [0 0 0 0] [energy 199967.123411 ei 8.405 es 0.000 et 18.743 er 5.729] 
M 15.10000 12 (2000.00, 6000.00, 0.00), (2000.00, 10.00), 2.50
M 15.10000 13 (6000.00, 6000.00, 0.00), (6000.00, 10.00), 2.50
M 15.10000 14 (4000.00, 10.00, 0.00), (4000.00, 6000.00), 2.50
r 49.493196692 _0_ MAC  --- 0 ACK 38 [0 0 0 0] [energy 199899.535921 ei 8.605 es 0.000 et 88.337 er 3.521] 
M 15.10000 12 (2000.00, 6000.00, 0.00), (2000.00, 10.00), 2.50
M 15.10000 13 (6000.00, 6000.00, 0.00), (6000.00, 10.00), 2.50
M 15.10000 14 (4000.00, 10.00, 0.00), (4000.00, 6000.00), 2.50
s 50.310850481 _9_ MAC  --- 0 RTS 44 [b20 d 9 0] [energy 199982.370803 ei 9.254 es 0.000 et 4.806 er 3.569] 
M 15.10000 12 (2000.00, 6000.00, 0.00), (2000.00, 10.00), 2.50
M 15.10000 13 (6000.00, 6000.00, 0.00), (6000.00, 10.00), 2.50
M 15.10000 14 (4000.00, 10.00, 0.00), (4000.00, 6000.00), 2.50
r 51.373309877 _13_ MAC  --- 0 RTS 44 [b20 d 9 0] [energy 199968.495284 ei 9.497 es 0.000 et 18.743 er 3.265] 
s 51.473309877 _13_ MAC  --- 0 CTS 38 [ce40 9 0 0] [energy 199968.495284 ei 9.497 es 0.000 et 18.743 er 3.265] 
M 15.10000 12 (2000.00, 6000.00, 0.00), (2000.00, 10.00), 2.50
M 15.10000 13 (6000.00, 6000.00, 0.00), (6000.00, 10.00), 2.50
M 15.10000 14 (4000.00, 10.00, 0.00), (4000.00, 6000.00), 2.50
s 52.370793102 _8_ MAC  --- 0 RTS 44 [b20 e 8 0] [energy 199899.034560 ei 9.107 es 0.000 et 88.337 er 3.521] 
r 52.486464896 _9_ MAC  --- 0 CTS 38 [ce40 9 0 0] [energy 199977.010035 ei 9.697 es 0.000 et 9.612 er 3.682] 
s 52.586464896 _9_ MAC  --- 8 vectorbasedforward 352 [3ce0 d 9 800] [energy 199977.010035 ei 9.697 es 0.000 et 9.612 er 3.682] ------- [60:352 8:0 0 0] 
M 15.10000 12 (2000.00, 6000.00, 0.00), (2000.00, 10.00), 2.50
M 15.10000 13 (6000.00, 6000.00, 0.00), (6000.00, 10.00), 2.50
M 15.10000 14 (4000.00, 10.00, 0.00), (4000.00, 6000.00), 2.50
s 53.276608356 _0_ MAC  --- 0 RTS 44 [b20 c 0 0] [energy 199898.834560 ei 9.307 es 0.000 et 88.337 er 3.521] 
r 53.426477896 _14_ MAC  --- 0 RTS 44 [b20 e 8 0] [energy 199962.641975 ei 9.360 es 0.000 et 22.109 er 5.889] 
s 53.526477896 _14_ MAC  --- 0 CTS 38 [ce40 8 0 0] [energy 199962.641975 ei 9.360 es 0.000 et 22.109 er 5.889] 
M 15.10000 12 (2000.00, 6000.00, 0.00), (2000.00, 10.00), 2.50
M 15.10000 13 (6000.00, 6000.00, 0.00), (6000.00, 10.00), 2.50
M 15.10000 14 (4000.00, 10.00, 0.00), (4000.00, 6000.00), 2.50
s 54.076608356 _3_ MAC  --- 0 RTS 44 [b20 c 3 0] [energy 199900.924467 ei 8.918 es 0.000 et 83.532 er 6.626] 
r 54.335744438 _12_ MAC  --- 0 RTS 44 [b20 c 0 0] [energy 199962.460122 ei 9.542 es 0.000 et 22.109 er 5.889] 
s 54.435744438 _12_ MAC  --- 0 CTS 38 [ce40 0 0 0] [energy 199962.460122 ei 9.542 es 0.000 et 22.109 er 5.889] 
r 54.532877838 _8_ MAC  --- 0 CTS 38 [ce40 8 0 0] [energy 199893.664509 ei 9.559 es 0.000 et 93.143 er 3.634] 
s 54.632877838 _8_ MAC  --- 10 vectorbasedforward 352 [3ce0 e 8 800] [energy 199893.664509 ei 9.559 es 0.000 et 93.143 er 3.634] ------- [60:352 10:0 0 0] 
M 15.10000 12 (2000.00, 6000.00, 0.00), (2000.00, 10.00), 2.50
M 15.10000 13 (6000.00, 6000.00, 0.00), (6000.00, 10.00), 2.50
M 15.10000 14 (4000.00, 10.00, 0.00), (4000.00, 6000.00), 2.50
D 55.134850542 _12_ MAC  BSY 0 RTS 44 [b20 c 3 0] [energy 199958.828825 ei 9.647 es 0.000 et 25.475 er 6.049] 
D 55.409941689 _0_ MAC  COL 0 CTS 38 [ce40 0 0 0] [energy 199893.357420 ei 9.741 es 0.000 et 93.143 er 3.758] 
M 15.10000 12 (2000.00, 6000.00, 0.00), (2000.00, 10.00), 2.50
M 15.10000 13 (6000.00, 6000.00, 0.00), (6000.00, 10.00), 2.50
M 15.10000 14 (4000.00, 10.00, 0.00), (4000.00, 6000.00), 2.50
r 56.110372998 _13_ MAC  --- 8 vectorbasedforward 300 [3ce0 d 9 800] [energy 199962.105196 ei 9.897 es 0.000 et 22.109 er 5.889] ------- [60:300 8:0 0 0] 
s 56.210372998 _13_ MAC  --- 0 ACK 38 [0 9 0 0] [energy 199962.105196 ei 9.897 es 0.000 et 22.109 er 5.889] 
M 15.10000 12 (2000.00, 6000.00, 0.00), (2000.00, 10.00), 2.50
M 15.10000 13 (6000.00, 6000.00, 0.00), (6000.00, 10.00), 2.50
M 15.10000 14 (4000.00, 10.00, 0.00), (4000.00, 6000.00), 2.50
r 57.218236323 _9_ MAC  --- 0 ACK 38 [0 9 0 0] [energy 199897.773006 ei 10.096 es 0.000 et 88.337 er 3.794] 
s 57.918236323 _9_ MAC  --- 0 RTS 44 [b20 d 9 0] [energy 199897.773006 ei 10.096 es 0.000 et 88.337 er 3.794] 
M 15.10000 12 (2000.00, 6000.00, 0.00), (2000.00, 10.00), 2.50
M 15.10000 13 (6000.00, 6000.00, 0.00), (6000.00, 10.00), 2.50
M 15.10000 14 (4000.00, 10.00, 0.00), (4000.00, 6000.00), 2.50
r 58.150049882 _14_ MAC  --- 10 vectorbasedforward 300 [3ce0 e 8 800] [energy 199956.254585 ei 9.758 es 0.000 et 25.475 er 8.513] ------- [60:300 10:0 0 0] 
s 58.250049882 _14_ MAC  --- 0 ACK 38 [0 8 0 0] [energy 199956.254585 ei 9.758 es 0.000 et 25.475 er 8.513] 
r 58.972201244 _13_ MAC  --- 0 RTS 44 [b20 d 9 0] [energy 199958.061355 ei 10.415 es 0.000 et 25.475 er 6.049] 
M 15.10000 12 (2000.00, 6000.00, 0.00), (2000.00, 10.00), 2.50
M 15.10000 13 (6000.00, 6000.00, 0.00), (6000.00, 10.00), 2.50
M 15.10000 14 (4000.00, 10.00, 0.00), (4000.00, 6000.00), 2.50
s 59.072201244 _13_ MAC  --- 0 CTS 38 [ce40 9 0 0] [energy 199958.055795 ei 10.420 es 0.000 et 25.475 er 6.049] 
r 59.251222395 _8_ MAC  --- 0 ACK 38 [0 8 0 0] [energy 199814.430165 ei 9.955 es 0.000 et 171.869 er 3.746] 
s 59.951222395 _5_ MAC  --- 0 RTS 44 [b20 e 5 0] [energy 199899.822869 ei 9.955 es 0.000 et 83.532 er 6.690] 
M 15.10000 12 (2000.00, 6000.00, 0.00), (2000.00, 10.00), 2.50
M 15.10000 13 (6000.00, 6000.00, 0.00), (6000.00, 10.00), 2.50
M 15.10000 14 (4000.00, 10.00, 0.00), (4000.00, 6000.00), 2.50
r 60.076886309 _9_ MAC  --- 0 CTS 38 [ce40 9 0 0] [energy 199892.337800 ei 10.613 es 0.000 et 93.143 er 3.906] 
s 60.176886309 _9_ MAC  --- 14 vectorbasedforward 352 [3ce0 d 9 800] [energy 199892.337800 ei 10.613 es 0.000 et 93.143 er 3.906] ------- [60:352 14:0 0 0] 
r 60.998521842 _14_ MAC  --- 0 RTS 44 [b20 e 5 0] [energy 199952.213416 ei 10.273 es 0.000 et 28.840 er 8.674] 
M 15.10000 12 (2000.00, 6000.00, 0.00), (2000.00, 10.00), 2.50
M 15.10000 13 (6000.00, 6000.00, 0.00), (6000.00, 10.00), 2.50
M 15.10000 14 (4000.00, 10.00, 0.00), (4000.00, 6000.00), 2.50
s 61.098521842 _14_ MAC  --- 0 CTS 38 [ce40 5 0 0] [energy 199952.213120 ei 10.273 es 0.000 et 28.840 er 8.674] 
s 61.548992356 _0_ MAC  --- 0 RTS 44 [b20 c 0 0] [energy 199892.271446 ei 10.827 es 0.000 et 93.143 er 3.758] 
M 15.10000 12 (2000.00, 6000.00, 0.00), (2000.00, 10.00), 2.50
M 15.10000 13 (6000.00, 6000.00, 0.00), (6000.00, 10.00), 2.50
M 15.10000 14 (4000.00, 10.00, 0.00), (4000.00, 6000.00), 2.50
r 62.096560949 _5_ MAC  --- 0 CTS 38 [ce40 5 0 0] [energy 199894.390326 ei 10.470 es 0.000 et 88.337 er 6.802] 
s 62.196560949 _5_ MAC  --- 9 vectorbasedforward 352 [3ce0 e 5 800] [energy 199894.390326 ei 10.470 es 0.000 et 88.337 er 6.802] ------- [60:352 9:0 0 0] 
r 62.598938247 _12_ MAC  --- 0 RTS 44 [b20 c 0 0] [energy 199957.207854 ei 11.108 es 0.000 et 25.475 er 6.210] 
s 62.698938247 _12_ MAC  --- 0 CTS 38 [ce40 0 0 0] [energy 199957.207854 ei 11.108 es 0.000 et 25.475 er 6.210] 
s 62.748992356 _3_ MAC  --- 0 RTS 44 [b20 c 3 0] [energy 199894.332838 ei 10.431 es 0.000 et 88.337 er 6.898] 
M 15.10000 12 (2000.00, 6000.00, 0.00), (2000.00, 10.00), 2.50
M 15.10000 13 (6000.00, 6000.00, 0.00), (6000.00, 10.00), 2.50
M 15.10000 14 (4000.00, 10.00, 0.00), (4000.00, 6000.00), 2.50
r 63.692348340 _13_ MAC  --- 14 vectorbasedforward 300 [3ce0 d 9 800] [energy 199951.674650 ei 10.811 es 0.000 et 28.840 er 8.674] ------- [60:300 14:0 0 0] 
r 63.699616019 _0_ MAC  --- 0 CTS 38 [ce40 0 0 0] [energy 199886.868048 ei 11.313 es 0.000 et 97.949 er 3.870] 
s 63.792348340 _13_ MAC  --- 0 ACK 38 [0 9 0 0] [energy 199951.674650 ei 10.811 es 0.000 et 28.840 er 8.674] 
D 63.797614983 _12_ MAC  BSY 0 RTS 44 [b20 c 3 0] [energy 199953.496643 ei 11.293 es 0.000 et 28.840 er 6.370] 
s 63.799616019 _0_ MAC  --- 11 vectorbasedforward 352 [3ce0 c 0 800] [energy 199886.868048 ei 11.313 es 0.000 et 97.949 er 3.870] ------- [60:352 11:0 0 0] 
M 15.10000 12 (2000.00, 6000.00, 0.00), (2000.00, 10.00), 2.50
M 15.10000 13 (6000.00, 6000.00, 0.00), (6000.00, 10.00), 2.50
M 15.10000 14 (4000.00, 10.00, 0.00), (4000.00, 6000.00), 2.50
r 64.791822498 _9_ MAC  --- 0 ACK 38 [0 9 0 0] [energy 199813.104138 ei 11.009 es 0.000 et 171.869 er 4.018] 
M 15.10000 12 (2000.00, 6000.00, 0.00), (2000.00, 10.00), 2.50
M 15.10000 13 (6000.00, 6000.00, 0.00), (6000.00, 10.00), 2.50
M 15.10000 14 (4000.00, 10.00, 0.00), (4000.00, 6000.00), 2.50
r 65.705396018 _14_ MAC  --- 9 vectorbasedforward 300 [3ce0 e 5 800] [energy 199945.829366 ei 10.667 es 0.000 et 32.206 er 11.298] ------- [60:300 9:0 0 0] 
s 65.805396018 _14_ MAC  --- 0 ACK 38 [0 5 0 0] [energy 199945.829366 ei 10.667 es 0.000 et 32.206 er 11.298] 
M 15.10000 12 (2000.00, 6000.00, 0.00), (2000.00, 10.00), 2.50
M 15.10000 13 (6000.00, 6000.00, 0.00), (6000.00, 10.00), 2.50
M 15.10000 14 (4000.00, 10.00, 0.00), (4000.00, 6000.00), 2.50
r 66.798289071 _5_ MAC  --- 0 ACK 38 [0 5 0 0] [energy 199815.159305 ei 10.863 es 0.000 et 167.063 er 6.915] 
M 15.10000 12 (2000.00, 6000.00, 0.00), (2000.00, 10.00), 2.50
M 15.10000 13 (6000.00, 6000.00, 0.00), (6000.00, 10.00), 2.50
M 15.10000 14 (4000.00, 10.00, 0.00), (4000.00, 6000.00), 2.50
r 67.311082184 _12_ MAC  --- 11 vectorbasedforward 300 [3ce0 c 0 800] [energy 199950.694596 ei 11.471 es 0.000 et 28.840 er 8.994] ------- [60:300 11:0 0 0] 
s 67.411082184 _12_ MAC  --- 0 ACK 38 [0 0 0 0] [energy 199950.694596 ei 11.471 es 0.000 et 28.840 er 8.994] 
M 15.10000 12 (2000.00, 6000.00, 0.00), (2000.00, 10.00), 2.50
M 15.10000 13 (6000.00, 6000.00, 0.00), (6000.00, 10.00), 2.50
M 15.10000 14 (4000.00, 10.00, 0.00), (4000.00, 6000.00), 2.50
s 68.091822498 _6_ MAC  --- 0 RTS 44 [b20 d 6 0] [energy 199891.105685 ei 11.125 es 0.000 et 88.337 er 9.432] 
r 68.406587995 _0_ MAC  --- 0 ACK 38 [0 0 0 0] [energy 199807.635978 ei 11.707 es 0.000 et 176.675 er 3.982] 
M 15.10000 12 (2000.00, 6000.00, 0.00), (2000.00, 10.00), 2.50
M 15.10000 13 (6000.00, 6000.00, 0.00), (6000.00, 10.00), 2.50
M 15.10000 14 (4000.00, 10.00, 0.00), (4000.00, 6000.00), 2.50
r 69.134584412 _13_ MAC  --- 0 RTS 44 [b20 d 6 0] [energy 199947.114728 ei 11.845 es 0.000 et 32.206 er 8.834] 
s 69.234584412 _13_ MAC  --- 0 CTS 38 [ce40 6 0 0] [energy 199947.114728 ei 11.845 es 0.000 et 32.206 er 8.834] 
s 69.817588018 _14_ MAC  --- 15 vectorbasedforward 60 [0 ffffffff e 800] [energy 199941.827123 ei 11.303 es 0.000 et 35.572 er 11.298] ------- [60:60 15:0 0 0] 
M 15.10000 12 (2000.00, 6000.00, 0.00), (2000.00, 10.00), 2.50
M 15.10000 13 (6000.00, 6000.00, 0.00), (6000.00, 10.00), 2.50
M 15.10000 14 (4000.00, 10.00, 0.00), (4000.00, 6000.00), 2.50
r 70.228099417 _6_ MAC  --- 0 CTS 38 [ce40 6 0 0] [energy 199885.796590 ei 11.516 es 0.000 et 93.143 er 9.545] 
s 70.328099417 _6_ MAC  --- 13 vectorbasedforward 352 [3ce0 d 6 800] [energy 199885.796590 ei 11.516 es 0.000 et 93.143 er 9.545] ------- [60:352 13:0 0 0] 
s 70.423274184 _12_ MAC  --- 17 vectorbasedforward 60 [0 ffffffff c 800] [energy 199946.813491 ei 11.987 es 0.000 et 32.206 er 8.994] ------- [60:60 17:0 0 0] 
r 70.982126102 _5_ MAC  --- 15 vectorbasedforward 60 [0 ffffffff e 800] [energy 199814.091984 ei 11.642 es 0.000 et 167.063 er 7.203] ------- [60:60 15:0 0 0] 
r 70.982126102 _8_ MAC  --- 15 vectorbasedforward 60 [0 ffffffff e 800] [energy 199809.446416 ei 11.642 es 0.000 et 171.869 er 7.043] ------- [60:60 15:0 0 0] 
M 15.10000 12 (2000.00, 6000.00, 0.00), (2000.00, 10.00), 2.50
M 15.10000 13 (6000.00, 6000.00, 0.00), (6000.00, 10.00), 2.50
M 15.10000 14 (4000.00, 10.00, 0.00), (4000.00, 6000.00), 2.50
r 71.591494664 _0_ MAC  --- 17 vectorbasedforward 60 [0 ffffffff c 800] [energy 199806.768443 ei 12.286 es 0.000 et 176.675 er 4.271] ------- [60:60 17:0 0 0] 
r 71.591494664 _3_ MAC  --- 17 vectorbasedforward 60 [0 ffffffff c 800] [energy 199885.003250 ei 11.658 es 0.000 et 93.143 er 10.195] ------- [60:60 17:0 0 0] 
M 15.10000 12 (2000.00, 6000.00, 0.00), (2000.00, 10.00), 2.50
M 15.10000 13 (6000.00, 6000.00, 0.00), (6000.00, 10.00), 2.50
M 15.10000 14 (4000.00, 10.00, 0.00), (4000.00, 6000.00), 2.50
M 15.10000 12 (2000.00, 6000.00, 0.00), (2000.00, 10.00), 2.50
M 15.10000 13 (6000.00, 6000.00, 0.00), (6000.00, 10.00), 2.50
M 15.10000 14 (4000.00, 10.00, 0.00), (4000.00, 6000.00), 2.50
r 73.832423451 _13_ MAC  --- 13 vectorbasedforward 300 [3ce0 d 6 800] [energy 199940.732485 ei 12.238 es 0.000 et 35.572 er 11.458] ------- [60:300 13:0 0 0] 
s 73.932423451 _13_ MAC  --- 0 ACK 38 [0 6 0 0] [energy 199940.732485 ei 12.238 es 0.000 et 35.572 er 11.458] 
M 15.10000 12 (2000.00, 6000.00, 0.00), (2000.00, 10.00), 2.50
M 15.10000 13 (6000.00, 6000.00, 0.00), (6000.00, 10.00), 2.50
M 15.10000 14 (4000.00, 10.00, 0.00), (4000.00, 6000.00), 2.50
r 74.920837321 _6_ MAC  --- 0 ACK 38 [0 6 0 0] [energy 199806.567367 ei 11.907 es 0.000 et 171.869 er 9.657] 
M 15.10000 12 (2000.00, 6000.00, 0.00), (2000.00, 10.00), 2.50
M 15.10000 13 (6000.00, 6000.00, 0.00), (6000.00, 10.00), 2.50
M 15.10000 14 (4000.00, 10.00, 0.00), (4000.00, 6000.00), 2.50
s 75.744615451 _13_ MAC  --- 16 vectorbasedforward 60 [0 ffffffff d 800] [energy 199937.155648 ei 12.449 es 0.000 et 38.938 er 11.458] ------- [60:60 16:0 0 0] 
M 15.10000 12 (2000.00, 6000.00, 0.00), (2000.00, 10.00), 2.50
M 15.10000 13 (6000.00, 6000.00, 0.00), (6000.00, 10.00), 2.50
M 15.10000 14 (4000.00, 10.00, 0.00), (4000.00, 6000.00), 2.50
r 76.907072344 _6_ MAC  --- 16 vectorbasedforward 60 [0 ffffffff d 800] [energy 199805.939567 ei 12.247 es 0.000 et 171.869 er 9.945] ------- [60:60 16:0 0 0] 
r 76.907072344 _9_ MAC  --- 16 vectorbasedforward 60 [0 ffffffff d 800] [energy 199808.043520 ei 12.773 es 0.000 et 171.869 er 7.315] ------- [60:60 16:0 0 0] 
M 15.10000 12 (2000.00, 6000.00, 0.00), (2000.00, 10.00), 2.50
M 15.10000 13 (6000.00, 6000.00, 0.00), (6000.00, 10.00), 2.50
M 15.10000 14 (4000.00, 10.00, 0.00), (4000.00, 6000.00), 2.50
M 15.10000 12 (2000.00, 6000.00, 0.00), (2000.00, 10.00), 2.50
M 15.10000 13 (6000.00, 6000.00, 0.00), (6000.00, 10.00), 2.50
M 15.10000 14 (4000.00, 10.00, 0.00), (4000.00, 6000.00), 2.50
M 15.10000 12 (2000.00, 6000.00, 0.00), (2000.00, 10.00), 2.50
M 15.10000 13 (6000.00, 6000.00, 0.00), (6000.00, 10.00), 2.50
M 15.10000 14 (4000.00, 10.00, 0.00), (4000.00, 6000.00), 2.50
M 15.10000 12 (2000.00, 6000.00, 0.00), (2000.00, 10.00), 2.50
M 15.10000 13 (6000.00, 6000.00, 0.00), (6000.00, 10.00), 2.50
M 15.10000 14 (4000.00, 10.00, 0.00), (4000.00, 6000.00), 2.50
M 15.10000 12 (2000.00, 6000.00, 0.00), (2000.00, 10.00), 2.50
M 15.10000 13 (6000.00, 6000.00, 0.00), (6000.00, 10.00), 2.50
M 15.10000 14 (4000.00, 10.00, 0.00), (4000.00, 6000.00), 2.50
M 15.10000 12 (2000.00, 6000.00, 0.00), (2000.00, 10.00), 2.50
M 15.10000 13 (6000.00, 6000.00, 0.00), (6000.00, 10.00), 2.50
M 15.10000 14 (4000.00, 10.00, 0.00), (4000.00, 6000.00), 2.50
M 15.10000 12 (2000.00, 6000.00, 0.00), (2000.00, 10.00), 2.50
M 15.10000 13 (6000.00, 6000.00, 0.00), (6000.00, 10.00), 2.50
M 15.10000 14 (4000.00, 10.00, 0.00), (4000.00, 6000.00), 2.50
M 15.10000 12 (2000.00, 6000.00, 0.00), (2000.00, 10.00), 2.50
M 15.10000 13 (6000.00, 6000.00, 0.00), (6000.00, 10.00), 2.50
M 15.10000 14 (4000.00, 10.00, 0.00), (4000.00, 6000.00), 2.50
s 84.924265606 _8_ MAC  --- 0 RTS 44 [b20 e 8 0] [energy 199806.842842 ei 14.246 es 0.000 et 171.869 er 7.043] 
M 15.10000 12 (2000.00, 6000.00, 0.00), (2000.00, 10.00), 2.50
M 15.10000 13 (6000.00, 6000.00, 0.00), (6000.00, 10.00), 2.50
M 15.10000 14 (4000.00, 10.00, 0.00), (4000.00, 6000.00), 2.50
s 85.001208750 _3_ MAC  --- 0 RTS 44 [b20 c 3 0] [energy 199880.222195 ei 13.815 es 0.000 et 93.143 er 12.820] 
s 85.126139326 _9_ MAC  --- 0 RTS 44 [b20 d 9 0] [energy 199806.424934 ei 14.391 es 0.000 et 171.869 er 7.315] 
s 85.324265606 _5_ MAC  --- 0 RTS 44 [b20 e 5 0] [energy 199811.288410 ei 14.446 es 0.000 et 167.063 er 7.203] 
r 85.944674971 _14_ MAC  --- 0 RTS 44 [b20 e 8 0] [energy 199929.721913 ei 14.603 es 0.000 et 44.218 er 11.458] 
M 15.10000 12 (2000.00, 6000.00, 0.00), (2000.00, 10.00), 2.50
M 15.10000 13 (6000.00, 6000.00, 0.00), (6000.00, 10.00), 2.50
M 15.10000 14 (4000.00, 10.00, 0.00), (4000.00, 6000.00), 2.50
r 86.025765019 _12_ MAC  --- 0 RTS 44 [b20 c 3 0] [energy 199934.892063 ei 15.102 es 0.000 et 40.852 er 9.154] 