n -t * -s 0  -x 1000 -y 5000 -Z 0 -z 1000  -v circle -c green
n -t * -s 1  -x 1000 -y 3000 -Z 0 -z 1000  -v circle -c green
n -t * -s 2  -x 1000 -y 1000 -Z 0 -z 1000  -v circle -c green
n -t * -s 3  -x 3000 -y 5000 -Z 0 -z 1000  -v circle -c green
n -t * -s 4  -x 3000 -y 3000 -Z 0 -z 1000  -v circle -c green
n -t * -s 5  -x 3000 -y 1000 -Z 0 -z 1000  -v circle -c green
n -t * -s 6  -x 5000 -y 5000 -Z 0 -z 1000  -v circle -c green
n -t * -s 7  -x 5000 -y 3000 -Z 0 -z 1000  -v circle -c green
n -t * -s 8  -x 5000 -y 1000 -Z 0 -z 1000  -v circle -c green
n -t * -s 9  -x 7000 -y 5000 -Z 0 -z 1000  -v circle -c green
n -t * -s 10  -x 7000 -y 3000 -Z 0 -z 1000  -v circle -c green
n -t * -s 11  -x 7000 -y 1000 -Z 0 -z 1000  -v circle -c green
n -t * -s 12  -x 2000 -y 6000 -Z 0 -z 1000  -v circle -c green
n -t * -s 13  -x 6000 -y 6000 -Z 0 -z 1000  -v circle -c green
n -t * -s 14  -x 4000 -y 10 -Z 0 -z 1000  -v circle -c green
V -t * -v 1.0a5 -a 0
W -t * -x 10000 -y 7000
A -t * -n 1 -p 0 -o 0xffffffff -c 31 -a 1
A -t * -h 1 -m 2147483647 -s 0
n -t 15.100000 -s 12 -x 2000.000000 -y 6000.000000 -U 0.000000 -V -2.500000 -T 2396.000000
n -t 15.100000 -s 13 -x 6000.000000 -y 6000.000000 -U 0.000000 -V -2.500000 -T 2396.000000
n -t 15.100000 -s 14 -x 4000.000000 -y 10.000000 -U 0.000000 -V 2.500000 -T 2396.000000
+ -t 17.000025000 -s 6 -d -1 -p vectorbasedforward -e 309 -c 2 -a 0 -i 0 -k MAC 
- -t 17.000025000 -s 6 -d -1 -p vectorbasedforward -e 309 -c 2 -a 0 -i 0 -k MAC
n -t 17.000025000 -s 6 -S COLOR -c red -o yellow
h -t 17.000025000 -s 6 -d -1 -p vectorbasedforward -e 309 -c 2 -a 0 -i 0 -k MAC -R 3000.000000
v -t 17.000025000 -e sim_annotation 17.000025000 1 node 6 sendout packet (vectorbasedforward) 0
n -t 20.412597506 -s 13 -S COLOR -c red -o yellow
r -t 20.412597506 -s 13 -d -1 -p vectorbasedforward -e 300 -c 2 -a 0 -i 0 -k MAC -R 3000.000000
v -t 20.412597506 -e sim_annotation 20.412597506 2 node 13 receive packet(vectorbasedforward) 0
n -t 20.805358333 -s 3 -S COLOR -c red -o yellow
r -t 20.805358333 -s 3 -d -1 -p vectorbasedforward -e 300 -c 2 -a 0 -i 0 -k MAC -R 3000.000000
v -t 20.805358333 -e sim_annotation 20.805358333 3 node 3 receive packet(vectorbasedforward) 0
n -t 20.805358333 -s 7 -S COLOR -c red -o yellow
r -t 20.805358333 -s 7 -d -1 -p vectorbasedforward -e 300 -c 2 -a 0 -i 0 -k MAC -R 3000.000000
v -t 20.805358333 -e sim_annotation 20.805358333 4 node 7 receive packet(vectorbasedforward) 0
n -t 20.805358333 -s 9 -S COLOR -c red -o yellow
r -t 20.805358333 -s 9 -d -1 -p vectorbasedforward -e 300 -c 2 -a 0 -i 0 -k MAC -R 3000.000000
v -t 20.805358333 -e sim_annotation 20.805358333 5 node 9 receive packet(vectorbasedforward) 0
+ -t 21.000025000 -s 8 -d -1 -p vectorbasedforward -e 309 -c 2 -a 0 -i 3 -k MAC 
- -t 21.000025000 -s 8 -d -1 -p vectorbasedforward -e 309 -c 2 -a 0 -i 3 -k MAC
n -t 21.000025000 -s 8 -S COLOR -c red -o yellow
h -t 21.000025000 -s 8 -d -1 -p vectorbasedforward -e 309 -c 2 -a 0 -i 3 -k MAC -R 3000.000000
v -t 21.000025000 -e sim_annotation 21.000025000 6 node 8 sendout packet (vectorbasedforward) 3
+ -t 21.103578404 -s 5 -d -1 -p vectorbasedforward -e 309 -c 2 -a 0 -i 2 -k MAC 
- -t 21.103578404 -s 5 -d -1 -p vectorbasedforward -e 309 -c 2 -a 0 -i 2 -k MAC
n -t 21.103578404 -s 5 -S COLOR -c red -o yellow
h -t 21.103578404 -s 5 -d -1 -p vectorbasedforward -e 309 -c 2 -a 0 -i 2 -k MAC -R 3000.000000
v -t 21.103578404 -e sim_annotation 21.103578404 7 node 5 sendout packet (vectorbasedforward) 2
n -t 21.357643083 -s 4 -S COLOR -c red -o yellow
r -t 21.357643083 -s 4 -d -1 -p vectorbasedforward -e 300 -c 2 -a 0 -i 0 -k MAC -R 3000.000000
v -t 21.357643083 -e sim_annotation 21.357643083 8 node 4 receive packet(vectorbasedforward) 0
n -t 21.357643083 -s 10 -S COLOR -c red -o yellow
r -t 21.357643083 -s 10 -d -1 -p vectorbasedforward -e 300 -c 2 -a 0 -i 0 -k MAC -R 3000.000000
v -t 21.357643083 -e sim_annotation 21.357643083 9 node 10 receive packet(vectorbasedforward) 0
+ -t 21.709447937 -s 9 -d -1 -p vectorbasedforward -e 309 -c 2 -a 0 -i 1 -k MAC 
- -t 21.709447937 -s 9 -d -1 -p vectorbasedforward -e 309 -c 2 -a 0 -i 1 -k MAC
n -t 21.709447937 -s 9 -S COLOR -c red -o yellow
h -t 21.709447937 -s 9 -d -1 -p vectorbasedforward -e 309 -c 2 -a 0 -i 1 -k MAC -R 3000.000000
v -t 21.709447937 -e sim_annotation 21.709447937 10 node 9 sendout packet (vectorbasedforward) 1
+ -t 24.112202450 -s 0 -d -1 -p vectorbasedforward -e 309 -c 2 -a 0 -i 5 -k MAC 
- -t 24.112202450 -s 0 -d -1 -p vectorbasedforward -e 309 -c 2 -a 0 -i 5 -k MAC
n -t 24.112202450 -s 0 -S COLOR -c red -o yellow
h -t 24.112202450 -s 0 -d -1 -p vectorbasedforward -e 309 -c 2 -a 0 -i 5 -k MAC -R 3000.000000
v -t 24.112202450 -e sim_annotation 24.112202450 11 node 0 sendout packet (vectorbasedforward) 5
n -t 24.805358333 -s 11 -S COLOR -c red -o yellow
r -t 24.805358333 -s 11 -d -1 -p vectorbasedforward -e 300 -c 2 -a 0 -i 3 -k MAC -R 3000.000000
v -t 24.805358333 -e sim_annotation 24.805358333 12 node 11 receive packet(vectorbasedforward) 3
n -t 24.908911737 -s 2 -S COLOR -c red -o yellow
r -t 24.908911737 -s 2 -d -1 -p vectorbasedforward -e 300 -c 2 -a 0 -i 2 -k MAC -R 3000.000000
v -t 24.908911737 -e sim_annotation 24.908911737 13 node 2 receive packet(vectorbasedforward) 2
r -t 25.116500114 -s 13 -d -1 -p vectorbasedforward -e 300 -c 2 -a 0 -i 1 -k MAC -R 3000.000000
v -t 25.116500114 -e sim_annotation 25.116500114 14 node 13 receive packet(vectorbasedforward) 1
n -t 25.514781270 -s 6 -S COLOR -c red -o yellow
r -t 25.514781270 -s 6 -d -1 -p vectorbasedforward -e 300 -c 2 -a 0 -i 1 -k MAC -R 3000.000000
v -t 25.514781270 -e sim_annotation 25.514781270 15 node 6 receive packet(vectorbasedforward) 1
n -t 27.516451013 -s 12 -S COLOR -c red -o yellow
r -t 27.516451013 -s 12 -d -1 -p vectorbasedforward -e 300 -c 2 -a 0 -i 5 -k MAC -R 3000.000000
v -t 27.516451013 -e sim_annotation 27.516451013 16 node 12 receive packet(vectorbasedforward) 5
r -t 27.917535784 -s 3 -d -1 -p vectorbasedforward -e 300 -c 2 -a 0 -i 5 -k MAC -R 3000.000000
v -t 27.917535784 -e sim_annotation 27.917535784 17 node 3 receive packet(vectorbasedforward) 5
r -t 28.469820533 -s 4 -d -1 -p vectorbasedforward -e 300 -c 2 -a 0 -i 5 -k MAC -R 3000.000000
v -t 28.469820533 -e sim_annotation 28.469820533 18 node 4 receive packet(vectorbasedforward) 5
+ -t 28.723606223 -s 4 -d -1 -p vectorbasedforward -e 309 -c 2 -a 0 -i 0 -k MAC 
- -t 28.723606223 -s 4 -d -1 -p vectorbasedforward -e 309 -c 2 -a 0 -i 0 -k MAC
n -t 28.723606223 -s 4 -S COLOR -c red -o yellow
h -t 28.723606223 -s 4 -d -1 -p vectorbasedforward -e 309 -c 2 -a 0 -i 0 -k MAC -R 3000.000000
v -t 28.723606223 -e sim_annotation 28.723606223 19 node 4 sendout packet (vectorbasedforward) 0
+ -t 29.465208174 -s 3 -d -1 -p vectorbasedforward -e 309 -c 2 -a 0 -i 4 -k MAC 
- -t 29.465208174 -s 3 -d -1 -p vectorbasedforward -e 309 -c 2 -a 0 -i 4 -k MAC
n -t 29.465208174 -s 3 -S COLOR -c red -o yellow
h -t 29.465208174 -s 3 -d -1 -p vectorbasedforward -e 309 -c 2 -a 0 -i 4 -k MAC -R 3000.000000
v -t 29.465208174 -e sim_annotation 29.465208174 20 node 3 sendout packet (vectorbasedforward) 4
n -t 32.528939557 -s 5 -S COLOR -c red -o yellow
r -t 32.528939557 -s 5 -d -1 -p vectorbasedforward -e 300 -c 2 -a 0 -i 0 -k MAC -R 3000.000000
v -t 32.528939557 -e sim_annotation 32.528939557 21 node 5 receive packet(vectorbasedforward) 0
r -t 32.863242419 -s 12 -d -1 -p vectorbasedforward -e 300 -c 2 -a 0 -i 4 -k MAC -R 3000.000000
v -t 32.863242419 -e sim_annotation 32.863242419 22 node 12 receive packet(vectorbasedforward) 4
r -t 33.081224306 -s 2 -d -1 -p vectorbasedforward -e 300 -c 2 -a 0 -i 0 -k MAC -R 3000.000000
v -t 33.081224306 -e sim_annotation 33.081224306 23 node 2 receive packet(vectorbasedforward) 0
n -t 33.081224306 -s 8 -S COLOR -c red -o yellow
r -t 33.081224306 -s 8 -d -1 -p vectorbasedforward -e 300 -c 2 -a 0 -i 0 -k MAC -R 3000.000000
v -t 33.081224306 -e sim_annotation 33.081224306 24 node 8 receive packet(vectorbasedforward) 0
+ -t 33.893163203 -s 2 -d -1 -p vectorbasedforward -e 309 -c 2 -a 0 -i 0 -k MAC 
- -t 33.893163203 -s 2 -d -1 -p vectorbasedforward -e 309 -c 2 -a 0 -i 0 -k MAC
n -t 33.893163203 -s 2 -S COLOR -c red -o yellow
h -t 33.893163203 -s 2 -d -1 -p vectorbasedforward -e 309 -c 2 -a 0 -i 0 -k MAC -R 3000.000000
v -t 33.893163203 -e sim_annotation 33.893163203 25 node 2 sendout packet (vectorbasedforward) 0
n -t 37.698496536 -s 1 -S COLOR -c red -o yellow
r -t 37.698496536 -s 1 -d -1 -p vectorbasedforward -e 300 -c 2 -a 0 -i 0 -k MAC -R 3000.000000
v -t 37.698496536 -e sim_annotation 37.698496536 26 node 1 receive packet(vectorbasedforward) 0
r -t 37.698496536 -s 5 -d -1 -p vectorbasedforward -e 300 -c 2 -a 0 -i 0 -k MAC -R 3000.000000
v -t 37.698496536 -e sim_annotation 37.698496536 27 node 5 receive packet(vectorbasedforward) 0
r -t 38.250781286 -s 4 -d -1 -p vectorbasedforward -e 300 -c 2 -a 0 -i 0 -k MAC -R 3000.000000
v -t 38.250781286 -e sim_annotation 38.250781286 28 node 4 receive packet(vectorbasedforward) 0
+ -t 50.333358333 -s 9 -d -1 -p vectorbasedforward -e 309 -c 2 -a 0 -i 7 -k MAC 
- -t 50.333358333 -s 9 -d -1 -p vectorbasedforward -e 309 -c 2 -a 0 -i 7 -k MAC
h -t 50.333358333 -s 9 -d -1 -p vectorbasedforward -e 309 -c 2 -a 0 -i 7 -k MAC -R 3000.000000
v -t 50.333358333 -e sim_annotation 50.333358333 29 node 9 sendout packet (vectorbasedforward) 7
r -t 53.707600452 -s 13 -d -1 -p vectorbasedforward -e 300 -c 2 -a 0 -i 7 -k MAC -R 3000.000000
v -t 53.707600452 -e sim_annotation 53.707600452 30 node 13 receive packet(vectorbasedforward) 7
r -t 54.138691667 -s 6 -d -1 -p vectorbasedforward -e 300 -c 2 -a 0 -i 7 -k MAC -R 3000.000000
v -t 54.138691667 -e sim_annotation 54.138691667 31 node 6 receive packet(vectorbasedforward) 7
r -t 54.138691667 -s 10 -d -1 -p vectorbasedforward -e 300 -c 2 -a 0 -i 7 -k MAC -R 3000.000000
v -t 54.138691667 -e sim_annotation 54.138691667 32 node 10 receive packet(vectorbasedforward) 7
r -t 54.690976416 -s 7 -d -1 -p vectorbasedforward -e 300 -c 2 -a 0 -i 7 -k MAC -R 3000.000000
v -t 54.690976416 -e sim_annotation 54.690976416 33 node 7 receive packet(vectorbasedforward) 7
+ -t 55.022922702 -s 8 -d -1 -p vectorbasedforward -e 309 -c 2 -a 0 -i 9 -k MAC 
- -t 55.022922702 -s 8 -d -1 -p vectorbasedforward -e 309 -c 2 -a 0 -i 9 -k MAC
h -t 55.022922702 -s 8 -d -1 -p vectorbasedforward -e 309 -c 2 -a 0 -i 9 -k MAC -R 3000.000000
v -t 55.022922702 -e sim_annotation 55.022922702 34 node 8 sendout packet (vectorbasedforward) 9
+ -t 55.990158069 -s 0 -d -1 -p vectorbasedforward -e 309 -c 2 -a 0 -i 11 -k MAC 
- -t 55.990158069 -s 0 -d -1 -p vectorbasedforward -e 309 -c 2 -a 0 -i 11 -k MAC
h -t 55.990158069 -s 0 -d -1 -p vectorbasedforward -e 309 -c 2 -a 0 -i 11 -k MAC -R 3000.000000
v -t 55.990158069 -e sim_annotation 55.990158069 35 node 0 sendout packet (vectorbasedforward) 11
+ -t 56.163868725 -s 5 -d -1 -p vectorbasedforward -e 309 -c 2 -a 0 -i 8 -k MAC 
- -t 56.163868725 -s 5 -d -1 -p vectorbasedforward -e 309 -c 2 -a 0 -i 8 -k MAC
h -t 56.163868725 -s 5 -d -1 -p vectorbasedforward -e 309 -c 2 -a 0 -i 8 -k MAC -R 3000.000000
v -t 56.163868725 -e sim_annotation 56.163868725 36 node 5 sendout packet (vectorbasedforward) 8
+ -t 56.410683309 -s 3 -d -1 -p vectorbasedforward -e 309 -c 2 -a 0 -i 10 -k MAC 
- -t 56.410683309 -s 3 -d -1 -p vectorbasedforward -e 309 -c 2 -a 0 -i 10 -k MAC
h -t 56.410683309 -s 3 -d -1 -p vectorbasedforward -e 309 -c 2 -a 0 -i 10 -k MAC -R 3000.000000
v -t 56.410683309 -e sim_annotation 56.410683309 37 node 3 sendout packet (vectorbasedforward) 10
r -t 58.828256035 -s 11 -d -1 -p vectorbasedforward -e 300 -c 2 -a 0 -i 9 -k MAC -R 3000.000000
v -t 58.828256035 -e sim_annotation 58.828256035 38 node 11 receive packet(vectorbasedforward) 9
r -t 59.380540785 -s 10 -d -1 -p vectorbasedforward -e 300 -c 2 -a 0 -i 9 -k MAC -R 3000.000000
v -t 59.380540785 -e sim_annotation 59.380540785 39 node 10 receive packet(vectorbasedforward) 9
r -t 59.969202058 -s 2 -d -1 -p vectorbasedforward -e 300 -c 2 -a 0 -i 8 -k MAC -R 3000.000000
v -t 59.969202058 -e sim_annotation 59.969202058 40 node 2 receive packet(vectorbasedforward) 8
r -t 60.216016642 -s 6 -d -1 -p vectorbasedforward -e 300 -c 2 -a 0 -i 10 -k MAC -R 3000.000000
v -t 60.216016642 -e sim_annotation 60.216016642 41 node 6 receive packet(vectorbasedforward) 10
+ -t 83.666691667 -s 6 -d -1 -p vectorbasedforward -e 309 -c 2 -a 0 -i 12 -k MAC 
- -t 83.666691667 -s 6 -d -1 -p vectorbasedforward -e 309 -c 2 -a 0 -i 12 -k MAC
h -t 83.666691667 -s 6 -d -1 -p vectorbasedforward -e 309 -c 2 -a 0 -i 12 -k MAC -R 3000.000000
v -t 83.666691667 -e sim_annotation 83.666691667 42 node 6 sendout packet (vectorbasedforward) 12
+ -t 84.862749004 -s 9 -d -1 -p vectorbasedforward -e 309 -c 2 -a 0 -i 13 -k MAC 
- -t 84.862749004 -s 9 -d -1 -p vectorbasedforward -e 309 -c 2 -a 0 -i 13 -k MAC
h -t 84.862749004 -s 9 -d -1 -p vectorbasedforward -e 309 -c 2 -a 0 -i 13 -k MAC -R 3000.000000
v -t 84.862749004 -e sim_annotation 84.862749004 43 node 9 sendout packet (vectorbasedforward) 13
r -t 87.472025000 -s 3 -d -1 -p vectorbasedforward -e 300 -c 2 -a 0 -i 12 -k MAC -R 3000.000000
v -t 87.472025000 -e sim_annotation 87.472025000 44 node 3 receive packet(vectorbasedforward) 12
+ -t 87.938478428 -s 8 -d -1 -p vectorbasedforward -e 309 -c 2 -a 0 -i 15 -k MAC 
- -t 87.938478428 -s 8 -d -1 -p vectorbasedforward -e 309 -c 2 -a 0 -i 15 -k MAC
h -t 87.938478428 -s 8 -d -1 -p vectorbasedforward -e 309 -c 2 -a 0 -i 15 -k MAC -R 3000.000000
v -t 87.938478428 -e sim_annotation 87.938478428 45 node 8 sendout packet (vectorbasedforward) 15
r -t 88.024309750 -s 4 -d -1 -p vectorbasedforward -e 300 -c 2 -a 0 -i 12 -k MAC -R 3000.000000
v -t 88.024309750 -e sim_annotation 88.024309750 46 node 4 receive packet(vectorbasedforward) 12
r -t 88.668082337 -s 6 -d -1 -p vectorbasedforward -e 300 -c 2 -a 0 -i 13 -k MAC -R 3000.000000
v -t 88.668082337 -e sim_annotation 88.668082337 47 node 6 receive packet(vectorbasedforward) 13
+ -t 88.698783449 -s 4 -d -1 -p vectorbasedforward -e 309 -c 2 -a 0 -i 12 -k MAC 
- -t 88.698783449 -s 4 -d -1 -p vectorbasedforward -e 309 -c 2 -a 0 -i 12 -k MAC
h -t 88.698783449 -s 4 -d -1 -p vectorbasedforward -e 309 -c 2 -a 0 -i 12 -k MAC -R 3000.000000
v -t 88.698783449 -e sim_annotation 88.698783449 48 node 4 sendout packet (vectorbasedforward) 12
+ -t 88.766691667 -s 0 -d -1 -p vectorbasedforward -e 309 -c 2 -a 0 -i 17 -k MAC 
- -t 88.766691667 -s 0 -d -1 -p vectorbasedforward -e 309 -c 2 -a 0 -i 17 -k MAC
h -t 88.766691667 -s 0 -d -1 -p vectorbasedforward -e 309 -c 2 -a 0 -i 17 -k MAC -R 3000.000000
v -t 88.766691667 -e sim_annotation 88.766691667 49 node 0 sendout packet (vectorbasedforward) 17
+ -t 89.022796595 -s 5 -d -1 -p vectorbasedforward -e 309 -c 2 -a 0 -i 14 -k MAC 
- -t 89.022796595 -s 5 -d -1 -p vectorbasedforward -e 309 -c 2 -a 0 -i 14 -k MAC
h -t 89.022796595 -s 5 -d -1 -p vectorbasedforward -e 309 -c 2 -a 0 -i 14 -k MAC -R 3000.000000
v -t 89.022796595 -e sim_annotation 89.022796595 50 node 5 sendout packet (vectorbasedforward) 14
+ -t 89.694799122 -s 3 -d -1 -p vectorbasedforward -e 309 -c 2 -a 0 -i 16 -k MAC 
- -t 89.694799122 -s 3 -d -1 -p vectorbasedforward -e 309 -c 2 -a 0 -i 16 -k MAC
h -t 89.694799122 -s 3 -d -1 -p vectorbasedforward -e 309 -c 2 -a 0 -i 16 -k MAC -R 3000.000000
v -t 89.694799122 -e sim_annotation 89.694799122 51 node 3 sendout packet (vectorbasedforward) 16
r -t 91.743811762 -s 11 -d -1 -p vectorbasedforward -e 300 -c 2 -a 0 -i 15 -k MAC -R 3000.000000
v -t 91.743811762 -e sim_annotation 91.743811762 52 node 11 receive packet(vectorbasedforward) 15
r -t 92.296096512 -s 10 -d -1 -p vectorbasedforward -e 300 -c 2 -a 0 -i 15 -k MAC -R 3000.000000
v -t 92.296096512 -e sim_annotation 92.296096512 53 node 10 receive packet(vectorbasedforward) 15
r -t 93.056401532 -s 8 -d -1 -p vectorbasedforward -e 300 -c 2 -a 0 -i 12 -k MAC -R 3000.000000
v -t 93.056401532 -e sim_annotation 93.056401532 54 node 8 receive packet(vectorbasedforward) 12
+ -t 119.172341293 -s 9 -d -1 -p vectorbasedforward -e 309 -c 2 -a 0 -i 19 -k MAC 
- -t 119.172341293 -s 9 -d -1 -p vectorbasedforward -e 309 -c 2 -a 0 -i 19 -k MAC
h -t 119.172341293 -s 9 -d -1 -p vectorbasedforward -e 309 -c 2 -a 0 -i 19 -k MAC -R 3000.000000
v -t 119.172341293 -e sim_annotation 119.172341293 55 node 9 sendout packet (vectorbasedforward) 19
+ -t 119.910496454 -s 6 -d -1 -p vectorbasedforward -e 309 -c 2 -a 0 -i 18 -k MAC 
- -t 119.910496454 -s 6 -d -1 -p vectorbasedforward -e 309 -c 2 -a 0 -i 18 -k MAC
h -t 119.910496454 -s 6 -d -1 -p vectorbasedforward -e 309 -c 2 -a 0 -i 18 -k MAC -R 3000.000000
v -t 119.910496454 -e sim_annotation 119.910496454 56 node 6 sendout packet (vectorbasedforward) 18
+ -t 121.000025000 -s 5 -d -1 -p vectorbasedforward -e 309 -c 2 -a 0 -i 20 -k MAC 
- -t 121.000025000 -s 5 -d -1 -p vectorbasedforward -e 309 -c 2 -a 0 -i 20 -k MAC
h -t 121.000025000 -s 5 -d -1 -p vectorbasedforward -e 309 -c 2 -a 0 -i 20 -k MAC -R 3000.000000
v -t 121.000025000 -e sim_annotation 121.000025000 57 node 5 sendout packet (vectorbasedforward) 20
+ -t 122.100025000 -s 0 -d -1 -p vectorbasedforward -e 309 -c 2 -a 0 -i 23 -k MAC 
- -t 122.100025000 -s 0 -d -1 -p vectorbasedforward -e 309 -c 2 -a 0 -i 23 -k MAC
h -t 122.100025000 -s 0 -d -1 -p vectorbasedforward -e 309 -c 2 -a 0 -i 23 -k MAC -R 3000.000000
v -t 122.100025000 -e sim_annotation 122.100025000 58 node 0 sendout packet (vectorbasedforward) 23
+ -t 122.302813762 -s 8 -d -1 -p vectorbasedforward -e 309 -c 2 -a 0 -i 21 -k MAC 
- -t 122.302813762 -s 8 -d -1 -p vectorbasedforward -e 309 -c 2 -a 0 -i 21 -k MAC
h -t 122.302813762 -s 8 -d -1 -p vectorbasedforward -e 309 -c 2 -a 0 -i 21 -k MAC -R 3000.000000
v -t 122.302813762 -e sim_annotation 122.302813762 59 node 8 sendout packet (vectorbasedforward) 21
r -t 124.805358333 -s 2 -d -1 -p vectorbasedforward -e 300 -c 2 -a 0 -i 20 -k MAC -R 3000.000000
v -t 124.805358333 -e sim_annotation 124.805358333 60 node 2 receive packet(vectorbasedforward) 20
r -t 125.398411016 -s 12 -d -1 -p vectorbasedforward -e 300 -c 2 -a 0 -i 23 -k MAC -R 3000.000000
v -t 125.398411016 -e sim_annotation 125.398411016 61 node 12 receive packet(vectorbasedforward) 23
r -t 126.108147095 -s 5 -d -1 -p vectorbasedforward -e 300 -c 2 -a 0 -i 21 -k MAC -R 3000.000000
v -t 126.108147095 -e sim_annotation 126.108147095 62 node 5 receive packet(vectorbasedforward) 21
r -t 126.108147095 -s 11 -d -1 -p vectorbasedforward -e 300 -c 2 -a 0 -i 21 -k MAC -R 3000.000000
v -t 126.108147095 -e sim_annotation 126.108147095 63 node 11 receive packet(vectorbasedforward) 21
+ -t 140.000025000 -s 7 -d -1 -p vectorbasedforward -e 309 -c 2 -a 0 -i 26 -k MAC 
- -t 140.000025000 -s 7 -d -1 -p vectorbasedforward -e 309 -c 2 -a 0 -i 26 -k MAC
n -t 140.000025000 -s 7 -S COLOR -c red -o yellow
h -t 140.000025000 -s 7 -d -1 -p vectorbasedforward -e 309 -c 2 -a 0 -i 26 -k MAC -R 3000.000000
v -t 140.000025000 -e sim_annotation 140.000025000 64 node 7 sendout packet (vectorbasedforward) 26
+ -t 141.035688352 -s 4 -d -1 -p vectorbasedforward -e 309 -c 2 -a 0 -i 25 -k MAC 
- -t 141.035688352 -s 4 -d -1 -p vectorbasedforward -e 309 -c 2 -a 0 -i 25 -k MAC
h -t 141.035688352 -s 4 -d -1 -p vectorbasedforward -e 309 -c 2 -a 0 -i 25 -k MAC -R 3000.000000
v -t 141.035688352 -e sim_annotation 141.035688352 65 node 4 sendout packet (vectorbasedforward) 25
r -t 143.805358333 -s 10 -d -1 -p vectorbasedforward -e 300 -c 2 -a 0 -i 26 -k MAC -R 3000.000000
v -t 143.805358333 -e sim_annotation 143.805358333 66 node 10 receive packet(vectorbasedforward) 26
r -t 144.357643083 -s 9 -d -1 -p vectorbasedforward -e 300 -c 2 -a 0 -i 26 -k MAC -R 3000.000000
v -t 144.357643083 -e sim_annotation 144.357643083 67 node 9 receive packet(vectorbasedforward) 26
r -t 144.357643083 -s 11 -d -1 -p vectorbasedforward -e 300 -c 2 -a 0 -i 26 -k MAC -R 3000.000000
v -t 144.357643083 -e sim_annotation 144.357643083 68 node 11 receive packet(vectorbasedforward) 26
r -t 144.383859457 -s 13 -d -1 -p vectorbasedforward -e 300 -c 2 -a 0 -i 26 -k MAC -R 3000.000000
v -t 144.383859457 -e sim_annotation 144.383859457 69 node 13 receive packet(vectorbasedforward) 26
r -t 144.841021685 -s 1 -d -1 -p vectorbasedforward -e 300 -c 2 -a 0 -i 25 -k MAC -R 3000.000000
v -t 144.841021685 -e sim_annotation 144.841021685 70 node 1 receive packet(vectorbasedforward) 25
+ -t 145.208059401 -s 1 -d -1 -p vectorbasedforward -e 309 -c 2 -a 0 -i 24 -k MAC 
- -t 145.208059401 -s 1 -d -1 -p vectorbasedforward -e 309 -c 2 -a 0 -i 24 -k MAC
n -t 145.208059401 -s 1 -S COLOR -c red -o yellow
h -t 145.208059401 -s 1 -d -1 -p vectorbasedforward -e 309 -c 2 -a 0 -i 24 -k MAC -R 3000.000000
v -t 145.208059401 -e sim_annotation 145.208059401 71 node 1 sendout packet (vectorbasedforward) 24
r -t 145.393306435 -s 2 -d -1 -p vectorbasedforward -e 300 -c 2 -a 0 -i 25 -k MAC -R 3000.000000
v -t 145.393306435 -e sim_annotation 145.393306435 72 node 2 receive packet(vectorbasedforward) 25
n -t 145.393306435 -s 0 -S COLOR -c red -o yellow
r -t 145.393306435 -s 0 -d -1 -p vectorbasedforward -e 300 -c 2 -a 0 -i 25 -k MAC -R 3000.000000
v -t 145.393306435 -e sim_annotation 145.393306435 73 node 0 receive packet(vectorbasedforward) 25
r -t 145.417905141 -s 12 -d -1 -p vectorbasedforward -e 300 -c 2 -a 0 -i 25 -k MAC -R 3000.000000
v -t 145.417905141 -e sim_annotation 145.417905141 74 node 12 receive packet(vectorbasedforward) 25
+ -t 146.163317276 -s 2 -d -1 -p vectorbasedforward -e 309 -c 2 -a 0 -i 25 -k MAC 
- -t 146.163317276 -s 2 -d -1 -p vectorbasedforward -e 309 -c 2 -a 0 -i 25 -k MAC
h -t 146.163317276 -s 2 -d -1 -p vectorbasedforward -e 309 -c 2 -a 0 -i 25 -k MAC -R 3000.000000
v -t 146.163317276 -e sim_annotation 146.163317276 75 node 2 sendout packet (vectorbasedforward) 25
r -t 149.013392734 -s 0 -d -1 -p vectorbasedforward -e 300 -c 2 -a 0 -i 24 -k MAC -R 3000.000000
v -t 149.013392734 -e sim_annotation 149.013392734 76 node 0 receive packet(vectorbasedforward) 24
r -t 149.565677484 -s 3 -d -1 -p vectorbasedforward -e 300 -c 2 -a 0 -i 24 -k MAC -R 3000.000000
v -t 149.565677484 -e sim_annotation 149.565677484 77 node 3 receive packet(vectorbasedforward) 24
+ -t 149.565677484 -s 3 -d -1 -p vectorbasedforward -e 309 -c 2 -a 0 -i 22 -k MAC 
- -t 149.565677484 -s 3 -d -1 -p vectorbasedforward -e 309 -c 2 -a 0 -i 22 -k MAC
h -t 149.565677484 -s 3 -d -1 -p vectorbasedforward -e 309 -c 2 -a 0 -i 22 -k MAC -R 3000.000000
v -t 149.565677484 -e sim_annotation 149.565677484 78 node 3 sendout packet (vectorbasedforward) 22
r -t 149.583761032 -s 12 -d -1 -p vectorbasedforward -e 300 -c 2 -a 0 -i 24 -k MAC -R 3000.000000
v -t 149.583761032 -e sim_annotation 149.583761032 79 node 12 receive packet(vectorbasedforward) 24
+ -t 151.716114124 -s 9 -d -1 -p vectorbasedforward -e 309 -c 2 -a 0 -i 28 -k MAC 
- -t 151.716114124 -s 9 -d -1 -p vectorbasedforward -e 309 -c 2 -a 0 -i 28 -k MAC
h -t 151.716114124 -s 9 -d -1 -p vectorbasedforward -e 309 -c 2 -a 0 -i 28 -k MAC -R 3000.000000
v -t 151.716114124 -e sim_annotation 151.716114124 80 node 9 sendout packet (vectorbasedforward) 28
r -t 152.837865789 -s 12 -d -1 -p vectorbasedforward -e 300 -c 2 -a 0 -i 22 -k MAC -R 3000.000000
v -t 152.837865789 -e sim_annotation 152.837865789 81 node 12 receive packet(vectorbasedforward) 22
r -t 153.371010817 -s 0 -d -1 -p vectorbasedforward -e 300 -c 2 -a 0 -i 22 -k MAC -R 3000.000000
v -t 153.371010817 -e sim_annotation 153.371010817 82 node 0 receive packet(vectorbasedforward) 22
r -t 153.371010817 -s 4 -d -1 -p vectorbasedforward -e 300 -c 2 -a 0 -i 22 -k MAC -R 3000.000000
v -t 153.371010817 -e sim_annotation 153.371010817 83 node 4 receive packet(vectorbasedforward) 22
r -t 153.923295567 -s 1 -d -1 -p vectorbasedforward -e 300 -c 2 -a 0 -i 22 -k MAC -R 3000.000000
v -t 153.923295567 -e sim_annotation 153.923295567 84 node 1 receive packet(vectorbasedforward) 22
+ -t 154.333358333 -s 5 -d -1 -p vectorbasedforward -e 309 -c 2 -a 0 -i 29 -k MAC 
- -t 154.333358333 -s 5 -d -1 -p vectorbasedforward -e 309 -c 2 -a 0 -i 29 -k MAC
h -t 154.333358333 -s 5 -d -1 -p vectorbasedforward -e 309 -c 2 -a 0 -i 29 -k MAC -R 3000.000000
v -t 154.333358333 -e sim_annotation 154.333358333 85 node 5 sendout packet (vectorbasedforward) 29
+ -t 154.333358333 -s 8 -d -1 -p vectorbasedforward -e 309 -c 2 -a 0 -i 30 -k MAC 
- -t 154.333358333 -s 8 -d -1 -p vectorbasedforward -e 309 -c 2 -a 0 -i 30 -k MAC
h -t 154.333358333 -s 8 -d -1 -p vectorbasedforward -e 309 -c 2 -a 0 -i 30 -k MAC -R 3000.000000
v -t 154.333358333 -e sim_annotation 154.333358333 86 node 8 sendout packet (vectorbasedforward) 30
r -t 154.986325791 -s 13 -d -1 -p vectorbasedforward -e 300 -c 2 -a 0 -i 28 -k MAC -R 3000.000000
v -t 154.986325791 -e sim_annotation 154.986325791 87 node 13 receive packet(vectorbasedforward) 28
+ -t 155.433358333 -s 0 -d -1 -p vectorbasedforward -e 309 -c 2 -a 0 -i 32 -k MAC 
- -t 155.433358333 -s 0 -d -1 -p vectorbasedforward -e 309 -c 2 -a 0 -i 32 -k MAC
h -t 155.433358333 -s 0 -d -1 -p vectorbasedforward -e 309 -c 2 -a 0 -i 32 -k MAC -R 3000.000000
v -t 155.433358333 -e sim_annotation 155.433358333 88 node 0 sendout packet (vectorbasedforward) 32
r -t 155.521447457 -s 10 -d -1 -p vectorbasedforward -e 300 -c 2 -a 0 -i 28 -k MAC -R 3000.000000
v -t 155.521447457 -e sim_annotation 155.521447457 89 node 10 receive packet(vectorbasedforward) 28
+ -t 155.740867754 -s 3 -d -1 -p vectorbasedforward -e 309 -c 2 -a 0 -i 31 -k MAC 
- -t 155.740867754 -s 3 -d -1 -p vectorbasedforward -e 309 -c 2 -a 0 -i 31 -k MAC
h -t 155.740867754 -s 3 -d -1 -p vectorbasedforward -e 309 -c 2 -a 0 -i 31 -k MAC -R 3000.000000
v -t 155.740867754 -e sim_annotation 155.740867754 90 node 3 sendout packet (vectorbasedforward) 31
r -t 158.138691667 -s 2 -d -1 -p vectorbasedforward -e 300 -c 2 -a 0 -i 29 -k MAC -R 3000.000000
v -t 158.138691667 -e sim_annotation 158.138691667 91 node 2 receive packet(vectorbasedforward) 29
r -t 158.138691667 -s 11 -d -1 -p vectorbasedforward -e 300 -c 2 -a 0 -i 30 -k MAC -R 3000.000000
v -t 158.138691667 -e sim_annotation 158.138691667 92 node 11 receive packet(vectorbasedforward) 30
r -t 158.690976416 -s 10 -d -1 -p vectorbasedforward -e 300 -c 2 -a 0 -i 30 -k MAC -R 3000.000000
v -t 158.690976416 -e sim_annotation 158.690976416 93 node 10 receive packet(vectorbasedforward) 30
r -t 159.546201087 -s 6 -d -1 -p vectorbasedforward -e 300 -c 2 -a 0 -i 31 -k MAC -R 3000.000000
v -t 159.546201087 -e sim_annotation 159.546201087 94 node 6 receive packet(vectorbasedforward) 31
+ -t 159.546201087 -s 6 -d -1 -p vectorbasedforward -e 309 -c 2 -a 0 -i 27 -k MAC 
- -t 159.546201087 -s 6 -d -1 -p vectorbasedforward -e 309 -c 2 -a 0 -i 27 -k MAC
h -t 159.546201087 -s 6 -d -1 -p vectorbasedforward -e 309 -c 2 -a 0 -i 27 -k MAC -R 3000.000000
v -t 159.546201087 -e sim_annotation 159.546201087 95 node 6 sendout packet (vectorbasedforward) 27
r -t 162.809310969 -s 13 -d -1 -p vectorbasedforward -e 300 -c 2 -a 0 -i 27 -k MAC -R 3000.000000
v -t 162.809310969 -e sim_annotation 162.809310969 96 node 13 receive packet(vectorbasedforward) 27
r -t 163.351534420 -s 3 -d -1 -p vectorbasedforward -e 300 -c 2 -a 0 -i 27 -k MAC -R 3000.000000
v -t 163.351534420 -e sim_annotation 163.351534420 97 node 3 receive packet(vectorbasedforward) 27
r -t 163.351534420 -s 7 -d -1 -p vectorbasedforward -e 300 -c 2 -a 0 -i 27 -k MAC -R 3000.000000
v -t 163.351534420 -e sim_annotation 163.351534420 98 node 7 receive packet(vectorbasedforward) 27
r -t 163.351534420 -s 9 -d -1 -p vectorbasedforward -e 300 -c 2 -a 0 -i 27 -k MAC -R 3000.000000
v -t 163.351534420 -e sim_annotation 163.351534420 99 node 9 receive packet(vectorbasedforward) 27
r -t 163.903819170 -s 4 -d -1 -p vectorbasedforward -e 300 -c 2 -a 0 -i 27 -k MAC -R 3000.000000
v -t 163.903819170 -e sim_annotation 163.903819170 100 node 4 receive packet(vectorbasedforward) 27
r -t 163.903819170 -s 10 -d -1 -p vectorbasedforward -e 300 -c 2 -a 0 -i 27 -k MAC -R 3000.000000
v -t 163.903819170 -e sim_annotation 163.903819170 101 node 10 receive packet(vectorbasedforward) 27
+ -t 168.336286474 -s 4 -d -1 -p vectorbasedforward -e 309 -c 2 -a 0 -i 27 -k MAC 
- -t 168.336286474 -s 4 -d -1 -p vectorbasedforward -e 309 -c 2 -a 0 -i 27 -k MAC
h -t 168.336286474 -s 4 -d -1 -p vectorbasedforward -e 309 -c 2 -a 0 -i 27 -k MAC -R 3000.000000
v -t 168.336286474 -e sim_annotation 168.336286474 102 node 4 sendout packet (vectorbasedforward) 27
r -t 172.141619807 -s 3 -d -1 -p vectorbasedforward -e 300 -c 2 -a 0 -i 27 -k MAC -R 3000.000000
v -t 172.141619807 -e sim_annotation 172.141619807 103 node 3 receive packet(vectorbasedforward) 27
r -t 172.141619807 -s 1 -d -1 -p vectorbasedforward -e 300 -c 2 -a 0 -i 27 -k MAC -R 3000.000000
v -t 172.141619807 -e sim_annotation 172.141619807 104 node 1 receive packet(vectorbasedforward) 27
r -t 172.141619807 -s 5 -d -1 -p vectorbasedforward -e 300 -c 2 -a 0 -i 27 -k MAC -R 3000.000000
v -t 172.141619807 -e sim_annotation 172.141619807 105 node 5 receive packet(vectorbasedforward) 27
r -t 172.141619807 -s 7 -d -1 -p vectorbasedforward -e 300 -c 2 -a 0 -i 27 -k MAC -R 3000.000000
v -t 172.141619807 -e sim_annotation 172.141619807 106 node 7 receive packet(vectorbasedforward) 27
n -t 172.669704812 -s 14 -S COLOR -c red -o yellow
r -t 172.669704812 -s 14 -d -1 -p vectorbasedforward -e 300 -c 2 -a 0 -i 27 -k MAC -R 3000.000000
v -t 172.669704812 -e sim_annotation 172.669704812 107 node 14 receive packet(vectorbasedforward) 27
r -t 172.675930766 -s 12 -d -1 -p vectorbasedforward -e 300 -c 2 -a 0 -i 27 -k MAC -R 3000.000000
v -t 172.675930766 -e sim_annotation 172.675930766 108 node 12 receive packet(vectorbasedforward) 27
r -t 172.693904557 -s 2 -d -1 -p vectorbasedforward -e 300 -c 2 -a 0 -i 27 -k MAC -R 3000.000000
v -t 172.693904557 -e sim_annotation 172.693904557 109 node 2 receive packet(vectorbasedforward) 27
r -t 172.693904557 -s 0 -d -1 -p vectorbasedforward -e 300 -c 2 -a 0 -i 27 -k MAC -R 3000.000000