vectorbased
M 0.0 nn 15 x 10000 y 7000 z 0
M 0.0 prop Propagation/UnderwaterPropagation ant Antenna/OmniAntenna
M 15.10000 12 (2000.00, 6000.00, 0.00), (2000.00, 10.00), 2.50
M 15.10000 13 (6000.00, 6000.00, 0.00), (6000.00, 10.00), 2.50
M 15.10000 14 (4000.00, 10.00, 0.00), (4000.00, 6000.00), 2.50
s 15.100025000 _6_ MAC  --- 1 vectorbasedforward 309 [0 6000000 ffff0008 0] [energy 199997.000000 ei 3.000 es 0.000 et 0.000 er 0.000] ------- [60:309 1:0 0 0] 
M 15.10000 12 (2000.00, 6000.00, 0.00), (2000.00, 10.00), 2.50
M 15.10000 13 (6000.00, 6000.00, 0.00), (6000.00, 10.00), 2.50
M 15.10000 14 (4000.00, 10.00, 0.00), (4000.00, 6000.00), 2.50
M 15.10000 12 (2000.00, 6000.00, 0.00), (2000.00, 10.00), 2.50
M 15.10000 13 (6000.00, 6000.00, 0.00), (6000.00, 10.00), 2.50
M 15.10000 14 (4000.00, 10.00, 0.00), (4000.00, 6000.00), 2.50
s 17.100025000 _1_ MAC  --- 2 vectorbasedforward 309 [0 1000000 ffff0008 0] [energy 199996.600000 ei 3.400 es 0.000 et 0.000 er 0.000] ------- [60:309 2:0 0 0] 
M 15.10000 12 (2000.00, 6000.00, 0.00), (2000.00, 10.00), 2.50
M 15.10000 13 (6000.00, 6000.00, 0.00), (6000.00, 10.00), 2.50
M 15.10000 14 (4000.00, 10.00, 0.00), (4000.00, 6000.00), 2.50
r 18.514834012 _13_ MAC  --- 1 vectorbasedforward 300 [0 6000000 ffff0008 0] [energy 199994.319433 ei 3.209 es 0.000 et 0.000 er 2.472] ------- [60:300 1:0 0 0] 
r 18.905358333 _3_ MAC  --- 1 vectorbasedforward 300 [0 6000000 ffff0008 0] [energy 199994.241328 ei 3.287 es 0.000 et 0.000 er 2.472] ------- [60:300 1:0 0 0] 
r 18.905358333 _7_ MAC  --- 1 vectorbasedforward 300 [0 6000000 ffff0008 0] [energy 199994.241328 ei 3.287 es 0.000 et 0.000 er 2.472] ------- [60:300 1:0 0 0] 
s 18.905358333 _7_ MAC  --- 3 vectorbasedforward 309 [0 7000000 ffff0008 0] [energy 199994.241328 ei 3.287 es 0.000 et 0.000 er 2.472] ------- [60:309 3:0 0 0] 
r 18.905358333 _9_ MAC  --- 1 vectorbasedforward 300 [0 6000000 ffff0008 0] [energy 199994.241328 ei 3.287 es 0.000 et 0.000 er 2.472] ------- [60:300 1:0 0 0] 
M 15.10000 12 (2000.00, 6000.00, 0.00), (2000.00, 10.00), 2.50
M 15.10000 13 (6000.00, 6000.00, 0.00), (6000.00, 10.00), 2.50
M 15.10000 14 (4000.00, 10.00, 0.00), (4000.00, 6000.00), 2.50
s 19.100025000 _8_ MAC  --- 5 vectorbasedforward 309 [0 8000000 ffff0008 0] [energy 199996.200000 ei 3.800 es 0.000 et 0.000 er 0.000] ------- [60:309 5:0 0 0] 
r 19.457643083 _10_ MAC  --- 1 vectorbasedforward 300 [0 6000000 ffff0008 0] [energy 199994.130871 ei 3.397 es 0.000 et 0.000 er 2.472] ------- [60:300 1:0 0 0] 
M 15.10000 12 (2000.00, 6000.00, 0.00), (2000.00, 10.00), 2.50
M 15.10000 13 (6000.00, 6000.00, 0.00), (6000.00, 10.00), 2.50
M 15.10000 14 (4000.00, 10.00, 0.00), (4000.00, 6000.00), 2.50
r 20.905358333 _0_ MAC  --- 2 vectorbasedforward 300 [0 1000000 ffff0008 0] [energy 199993.841328 ei 3.687 es 0.000 et 0.000 er 2.472] ------- [60:300 2:0 0 0] 
r 20.905358333 _2_ MAC  --- 2 vectorbasedforward 300 [0 1000000 ffff0008 0] [energy 199993.841328 ei 3.687 es 0.000 et 0.000 er 2.472] ------- [60:300 2:0 0 0] 
s 20.905358333 _2_ MAC  --- 4 vectorbasedforward 309 [0 2000000 ffff0008 0] [energy 199993.841328 ei 3.687 es 0.000 et 0.000 er 2.472] ------- [60:309 4:0 0 0] 
M 15.10000 12 (2000.00, 6000.00, 0.00), (2000.00, 10.00), 2.50
M 15.10000 13 (6000.00, 6000.00, 0.00), (6000.00, 10.00), 2.50
M 15.10000 14 (4000.00, 10.00, 0.00), (4000.00, 6000.00), 2.50
M 15.10000 12 (2000.00, 6000.00, 0.00), (2000.00, 10.00), 2.50
M 15.10000 13 (6000.00, 6000.00, 0.00), (6000.00, 10.00), 2.50
M 15.10000 14 (4000.00, 10.00, 0.00), (4000.00, 6000.00), 2.50
r 22.505453537 _14_ MAC  --- 5 vectorbasedforward 300 [0 8000000 ffff0008 0] [energy 199993.521309 ei 4.007 es 0.000 et 0.000 er 2.472] ------- [60:300 5:0 0 0] 
r 22.710691667 _6_ MAC  --- 3 vectorbasedforward 300 [0 7000000 ffff0008 0] [energy 199919.814662 ei 3.553 es 0.000 et 74.160 er 2.472] ------- [60:300 3:0 0 0] 
M 15.10000 12 (2000.00, 6000.00, 0.00), (2000.00, 10.00), 2.50
M 15.10000 13 (6000.00, 6000.00, 0.00), (6000.00, 10.00), 2.50
M 15.10000 14 (4000.00, 10.00, 0.00), (4000.00, 6000.00), 2.50
r 23.262976416 _9_ MAC  --- 3 vectorbasedforward 300 [0 7000000 ffff0008 0] [energy 199991.392205 ei 3.664 es 0.000 et 0.000 er 4.944] ------- [60:300 3:0 0 0] 
s 23.262976416 _9_ MAC  --- 7 vectorbasedforward 309 [0 9000000 ffff0008 0] [energy 199991.392205 ei 3.664 es 0.000 et 0.000 er 4.944] ------- [60:309 7:0 0 0] 
M 15.10000 12 (2000.00, 6000.00, 0.00), (2000.00, 10.00), 2.50
M 15.10000 13 (6000.00, 6000.00, 0.00), (6000.00, 10.00), 2.50
M 15.10000 14 (4000.00, 10.00, 0.00), (4000.00, 6000.00), 2.50
r 24.710691667 _1_ MAC  --- 4 vectorbasedforward 300 [0 2000000 ffff0008 0] [energy 199919.414662 ei 3.953 es 0.000 et 74.160 er 2.472] ------- [60:300 4:0 0 0] 
M 15.10000 12 (2000.00, 6000.00, 0.00), (2000.00, 10.00), 2.50
M 15.10000 13 (6000.00, 6000.00, 0.00), (6000.00, 10.00), 2.50
M 15.10000 14 (4000.00, 10.00, 0.00), (4000.00, 6000.00), 2.50
s 25.100025000 _5_ MAC  --- 10 vectorbasedforward 309 [0 5000000 ffff0008 0] [energy 199990.419961 ei 3.855 es 0.000 et 0.000 er 5.725] ------- [60:309 10:0 0 0] 
M 15.10000 12 (2000.00, 6000.00, 0.00), (2000.00, 10.00), 2.50
M 15.10000 13 (6000.00, 6000.00, 0.00), (6000.00, 10.00), 2.50
M 15.10000 14 (4000.00, 10.00, 0.00), (4000.00, 6000.00), 2.50
r 26.668214883 _13_ MAC  --- 7 vectorbasedforward 300 [0 9000000 ffff0008 0] [energy 199990.711157 ei 4.345 es 0.000 et 0.000 er 4.944] ------- [60:300 7:0 0 0] 
M 15.10000 12 (2000.00, 6000.00, 0.00), (2000.00, 10.00), 2.50
M 15.10000 13 (6000.00, 6000.00, 0.00), (6000.00, 10.00), 2.50
M 15.10000 14 (4000.00, 10.00, 0.00), (4000.00, 6000.00), 2.50
r 27.068309750 _6_ MAC  --- 7 vectorbasedforward 300 [0 9000000 ffff0008 0] [energy 199916.965538 ei 3.930 es 0.000 et 74.160 er 4.944] ------- [60:300 7:0 0 0] 
r 27.068309750 _10_ MAC  --- 7 vectorbasedforward 300 [0 9000000 ffff0008 0] [energy 199988.055977 ei 3.781 es 0.000 et 0.000 er 8.163] ------- [60:300 7:0 0 0] 
s 27.068309750 _10_ MAC  --- 9 vectorbasedforward 309 [0 a000000 ffff0008 0] [energy 199988.055977 ei 3.781 es 0.000 et 0.000 er 8.163] ------- [60:309 9:0 0 0] 
M 15.10000 12 (2000.00, 6000.00, 0.00), (2000.00, 10.00), 2.50
M 15.10000 13 (6000.00, 6000.00, 0.00), (6000.00, 10.00), 2.50
M 15.10000 14 (4000.00, 10.00, 0.00), (4000.00, 6000.00), 2.50
r 28.498481782 _14_ MAC  --- 10 vectorbasedforward 300 [0 5000000 ffff0008 0] [energy 199990.345104 ei 4.711 es 0.000 et 0.000 er 4.944] ------- [60:300 10:0 0 0] 
r 28.905358333 _4_ MAC  --- 10 vectorbasedforward 300 [0 5000000 ffff0008 0] [energy 199985.619462 ei 3.631 es 0.000 et 0.000 er 10.749] ------- [60:300 10:0 0 0] 
s 28.905358333 _4_ MAC  --- 8 vectorbasedforward 309 [0 4000000 ffff0008 0] [energy 199985.619462 ei 3.631 es 0.000 et 0.000 er 10.749] ------- [60:309 8:0 0 0] 
r 28.905358333 _2_ MAC  --- 10 vectorbasedforward 300 [0 5000000 ffff0008 0] [energy 199916.598128 ei 4.298 es 0.000 et 74.160 er 4.944] ------- [60:300 10:0 0 0] 
r 28.905358333 _8_ MAC  --- 10 vectorbasedforward 300 [0 5000000 ffff0008 0] [energy 199918.575728 ei 4.792 es 0.000 et 74.160 er 2.472] ------- [60:300 10:0 0 0] 
M 15.10000 12 (2000.00, 6000.00, 0.00), (2000.00, 10.00), 2.50
M 15.10000 13 (6000.00, 6000.00, 0.00), (6000.00, 10.00), 2.50
M 15.10000 14 (4000.00, 10.00, 0.00), (4000.00, 6000.00), 2.50
r 29.457643083 _1_ MAC  --- 10 vectorbasedforward 300 [0 5000000 ffff0008 0] [energy 199916.487671 ei 4.408 es 0.000 et 74.160 er 4.944] ------- [60:300 10:0 0 0] 
M 15.10000 12 (2000.00, 6000.00, 0.00), (2000.00, 10.00), 2.50
M 15.10000 13 (6000.00, 6000.00, 0.00), (6000.00, 10.00), 2.50
M 15.10000 14 (4000.00, 10.00, 0.00), (4000.00, 6000.00), 2.50
r 30.873643083 _9_ MAC  --- 9 vectorbasedforward 300 [0 a000000 ffff0008 0] [energy 199914.226871 ei 4.197 es 0.000 et 74.160 er 7.416] ------- [60:300 9:0 0 0] 
r 30.873643083 _11_ MAC  --- 9 vectorbasedforward 300 [0 a000000 ffff0008 0] [energy 199989.583977 ei 5.114 es 0.000 et 0.000 er 5.302] ------- [60:300 9:0 0 0] 
M 15.10000 12 (2000.00, 6000.00, 0.00), (2000.00, 10.00), 2.50
M 15.10000 13 (6000.00, 6000.00, 0.00), (6000.00, 10.00), 2.50
M 15.10000 14 (4000.00, 10.00, 0.00), (4000.00, 6000.00), 2.50
M 15.10000 12 (2000.00, 6000.00, 0.00), (2000.00, 10.00), 2.50
M 15.10000 13 (6000.00, 6000.00, 0.00), (6000.00, 10.00), 2.50
M 15.10000 14 (4000.00, 10.00, 0.00), (4000.00, 6000.00), 2.50
r 32.710691667 _3_ MAC  --- 8 vectorbasedforward 300 [0 4000000 ffff0008 0] [energy 199986.080795 ei 4.698 es 0.000 et 0.000 er 9.221] ------- [60:300 8:0 0 0] 
s 32.710691667 _3_ MAC  --- 6 vectorbasedforward 309 [0 3000000 ffff0008 0] [energy 199986.080795 ei 4.698 es 0.000 et 0.000 er 9.221] ------- [60:309 6:0 0 0] 
r 32.710691667 _1_ MAC  --- 8 vectorbasedforward 300 [0 4000000 ffff0008 0] [energy 199913.859462 ei 4.565 es 0.000 et 74.160 er 7.416] ------- [60:300 8:0 0 0] 
r 32.710691667 _5_ MAC  --- 8 vectorbasedforward 300 [0 4000000 ffff0008 0] [energy 199913.234623 ei 4.408 es 0.000 et 74.160 er 8.197] ------- [60:300 8:0 0 0] 
M 15.10000 12 (2000.00, 6000.00, 0.00), (2000.00, 10.00), 2.50
M 15.10000 13 (6000.00, 6000.00, 0.00), (6000.00, 10.00), 2.50
M 15.10000 14 (4000.00, 10.00, 0.00), (4000.00, 6000.00), 2.50
r 33.262976416 _2_ MAC  --- 8 vectorbasedforward 300 [0 4000000 ffff0008 0] [energy 199913.749005 ei 4.675 es 0.000 et 74.160 er 7.416] ------- [60:300 8:0 0 0] 
r 33.262976416 _0_ MAC  --- 8 vectorbasedforward 300 [0 4000000 ffff0008 0] [energy 199989.392205 ei 5.664 es 0.000 et 0.000 er 4.944] ------- [60:300 8:0 0 0] 
M 15.10000 12 (2000.00, 6000.00, 0.00), (2000.00, 10.00), 2.50
M 15.10000 13 (6000.00, 6000.00, 0.00), (6000.00, 10.00), 2.50
M 15.10000 14 (4000.00, 10.00, 0.00), (4000.00, 6000.00), 2.50
s 34.032987258 _2_ MAC  --- 8 vectorbasedforward 309 [0 2000000 ffff0008 0] [energy 199913.601600 ei 4.822 es 0.000 et 74.160 er 7.416] ------- [60:309 8:0 0 0] 
M 15.10000 12 (2000.00, 6000.00, 0.00), (2000.00, 10.00), 2.50
M 15.10000 13 (6000.00, 6000.00, 0.00), (6000.00, 10.00), 2.50
M 15.10000 14 (4000.00, 10.00, 0.00), (4000.00, 6000.00), 2.50
M 15.10000 12 (2000.00, 6000.00, 0.00), (2000.00, 10.00), 2.50
M 15.10000 13 (6000.00, 6000.00, 0.00), (6000.00, 10.00), 2.50
M 15.10000 14 (4000.00, 10.00, 0.00), (4000.00, 6000.00), 2.50
r 36.104979858 _12_ MAC  --- 6 vectorbasedforward 300 [0 3000000 ffff0008 0] [energy 199990.801404 ei 6.727 es 0.000 et 0.000 er 2.472] ------- [60:300 6:0 0 0] 
r 36.516025000 _0_ MAC  --- 6 vectorbasedforward 300 [0 3000000 ffff0008 0] [energy 199986.763995 ei 5.820 es 0.000 et 0.000 er 7.416] ------- [60:300 6:0 0 0] 
r 36.516025000 _6_ MAC  --- 6 vectorbasedforward 300 [0 3000000 ffff0008 0] [energy 199909.651156 ei 4.464 es 0.000 et 74.160 er 11.725] ------- [60:300 6:0 0 0] 
M 15.10000 12 (2000.00, 6000.00, 0.00), (2000.00, 10.00), 2.50
M 15.10000 13 (6000.00, 6000.00, 0.00), (6000.00, 10.00), 2.50
M 15.10000 14 (4000.00, 10.00, 0.00), (4000.00, 6000.00), 2.50
r 37.068309750 _7_ MAC  --- 6 vectorbasedforward 300 [0 3000000 ffff0008 0] [energy 199908.915860 ei 4.418 es 0.000 et 74.160 er 12.506] ------- [60:300 6:0 0 0] 
r 37.838320591 _5_ MAC  --- 8 vectorbasedforward 300 [0 2000000 ffff0008 0] [energy 199910.231497 ei 4.939 es 0.000 et 74.160 er 10.669] ------- [60:300 8:0 0 0] 
M 15.10000 12 (2000.00, 6000.00, 0.00), (2000.00, 10.00), 2.50
M 15.10000 13 (6000.00, 6000.00, 0.00), (6000.00, 10.00), 2.50
M 15.10000 14 (4000.00, 10.00, 0.00), (4000.00, 6000.00), 2.50
M 15.10000 12 (2000.00, 6000.00, 0.00), (2000.00, 10.00), 2.50
M 15.10000 13 (6000.00, 6000.00, 0.00), (6000.00, 10.00), 2.50
M 15.10000 14 (4000.00, 10.00, 0.00), (4000.00, 6000.00), 2.50
M 15.10000 12 (2000.00, 6000.00, 0.00), (2000.00, 10.00), 2.50
M 15.10000 13 (6000.00, 6000.00, 0.00), (6000.00, 10.00), 2.50
M 15.10000 14 (4000.00, 10.00, 0.00), (4000.00, 6000.00), 2.50
M 15.10000 12 (2000.00, 6000.00, 0.00), (2000.00, 10.00), 2.50
M 15.10000 13 (6000.00, 6000.00, 0.00), (6000.00, 10.00), 2.50
M 15.10000 14 (4000.00, 10.00, 0.00), (4000.00, 6000.00), 2.50
M 15.10000 12 (2000.00, 6000.00, 0.00), (2000.00, 10.00), 2.50
M 15.10000 13 (6000.00, 6000.00, 0.00), (6000.00, 10.00), 2.50
M 15.10000 14 (4000.00, 10.00, 0.00), (4000.00, 6000.00), 2.50
M 15.10000 12 (2000.00, 6000.00, 0.00), (2000.00, 10.00), 2.50
M 15.10000 13 (6000.00, 6000.00, 0.00), (6000.00, 10.00), 2.50
M 15.10000 14 (4000.00, 10.00, 0.00), (4000.00, 6000.00), 2.50
M 15.10000 12 (2000.00, 6000.00, 0.00), (2000.00, 10.00), 2.50
M 15.10000 13 (6000.00, 6000.00, 0.00), (6000.00, 10.00), 2.50
M 15.10000 14 (4000.00, 10.00, 0.00), (4000.00, 6000.00), 2.50
M 15.10000 12 (2000.00, 6000.00, 0.00), (2000.00, 10.00), 2.50
M 15.10000 13 (6000.00, 6000.00, 0.00), (6000.00, 10.00), 2.50
M 15.10000 14 (4000.00, 10.00, 0.00), (4000.00, 6000.00), 2.50
M 15.10000 12 (2000.00, 6000.00, 0.00), (2000.00, 10.00), 2.50
M 15.10000 13 (6000.00, 6000.00, 0.00), (6000.00, 10.00), 2.50
M 15.10000 14 (4000.00, 10.00, 0.00), (4000.00, 6000.00), 2.50
M 15.10000 12 (2000.00, 6000.00, 0.00), (2000.00, 10.00), 2.50
M 15.10000 13 (6000.00, 6000.00, 0.00), (6000.00, 10.00), 2.50
M 15.10000 14 (4000.00, 10.00, 0.00), (4000.00, 6000.00), 2.50
M 15.10000 12 (2000.00, 6000.00, 0.00), (2000.00, 10.00), 2.50
M 15.10000 13 (6000.00, 6000.00, 0.00), (6000.00, 10.00), 2.50
M 15.10000 14 (4000.00, 10.00, 0.00), (4000.00, 6000.00), 2.50
s 48.433358333 _0_ MAC  --- 12 vectorbasedforward 309 [0 0 ffff0008 0] [energy 199984.467200 ei 8.117 es 0.000 et 0.000 er 7.416] ------- [60:309 12:0 0 0] 
s 48.433358333 _6_ MAC  --- 13 vectorbasedforward 309 [0 6000000 ffff0008 0] [energy 199907.354361 ei 6.761 es 0.000 et 74.160 er 11.725] ------- [60:309 13:0 0 0] 
M 15.10000 12 (2000.00, 6000.00, 0.00), (2000.00, 10.00), 2.50
M 15.10000 13 (6000.00, 6000.00, 0.00), (6000.00, 10.00), 2.50
M 15.10000 14 (4000.00, 10.00, 0.00), (4000.00, 6000.00), 2.50
M 15.10000 12 (2000.00, 6000.00, 0.00), (2000.00, 10.00), 2.50
M 15.10000 13 (6000.00, 6000.00, 0.00), (6000.00, 10.00), 2.50
M 15.10000 14 (4000.00, 10.00, 0.00), (4000.00, 6000.00), 2.50
M 15.10000 12 (2000.00, 6000.00, 0.00), (2000.00, 10.00), 2.50
M 15.10000 13 (6000.00, 6000.00, 0.00), (6000.00, 10.00), 2.50
M 15.10000 14 (4000.00, 10.00, 0.00), (4000.00, 6000.00), 2.50
r 51.809737227 _12_ MAC  --- 12 vectorbasedforward 300 [0 0 ffff0008 0] [energy 199985.682853 ei 9.373 es 0.000 et 0.000 er 4.944] ------- [60:300 12:0 0 0] 
r 51.809737227 _13_ MAC  --- 13 vectorbasedforward 300 [0 6000000 ffff0008 0] [energy 199983.705253 ei 8.879 es 0.000 et 0.000 er 7.416] ------- [60:300 13:0 0 0] 
M 15.10000 12 (2000.00, 6000.00, 0.00), (2000.00, 10.00), 2.50
M 15.10000 13 (6000.00, 6000.00, 0.00), (6000.00, 10.00), 2.50
M 15.10000 14 (4000.00, 10.00, 0.00), (4000.00, 6000.00), 2.50
r 52.238691667 _1_ MAC  --- 12 vectorbasedforward 300 [0 0 ffff0008 0] [energy 199905.382653 ei 7.327 es 0.000 et 74.160 er 13.130] ------- [60:300 12:0 0 0] 
s 52.238691667 _1_ MAC  --- 14 vectorbasedforward 309 [0 1000000 ffff0008 0] [energy 199905.382653 ei 7.327 es 0.000 et 74.160 er 13.130] ------- [60:309 14:0 0 0] 
r 52.238691667 _7_ MAC  --- 13 vectorbasedforward 300 [0 6000000 ffff0008 0] [energy 199903.904184 ei 6.958 es 0.000 et 74.160 er 14.978] ------- [60:300 13:0 0 0] 
s 52.238691667 _7_ MAC  --- 15 vectorbasedforward 309 [0 7000000 ffff0008 0] [energy 199903.904184 ei 6.958 es 0.000 et 74.160 er 14.978] ------- [60:309 15:0 0 0] 
r 52.238691667 _9_ MAC  --- 13 vectorbasedforward 300 [0 6000000 ffff0008 0] [energy 199907.976262 ei 7.976 es 0.000 et 74.160 er 9.888] ------- [60:300 13:0 0 0] 
s 52.433358333 _2_ MAC  --- 16 vectorbasedforward 309 [0 2000000 ffff0008 0] [energy 199836.336000 ei 7.928 es 0.000 et 148.320 er 7.416] ------- [60:309 16:0 0 0] 
s 52.433358333 _8_ MAC  --- 17 vectorbasedforward 309 [0 8000000 ffff0008 0] [energy 199910.509561 ei 8.549 es 0.000 et 74.160 er 6.781] ------- [60:309 17:0 0 0] 
r 52.790976416 _10_ MAC  --- 13 vectorbasedforward 300 [0 6000000 ffff0008 0] [energy 199907.268244 ei 7.937 es 0.000 et 74.160 er 10.635] ------- [60:300 13:0 0 0] 
M 15.10000 12 (2000.00, 6000.00, 0.00), (2000.00, 10.00), 2.50
M 15.10000 13 (6000.00, 6000.00, 0.00), (6000.00, 10.00), 2.50
M 15.10000 14 (4000.00, 10.00, 0.00), (4000.00, 6000.00), 2.50
M 15.10000 12 (2000.00, 6000.00, 0.00), (2000.00, 10.00), 2.50
M 15.10000 13 (6000.00, 6000.00, 0.00), (6000.00, 10.00), 2.50
M 15.10000 14 (4000.00, 10.00, 0.00), (4000.00, 6000.00), 2.50
M 15.10000 12 (2000.00, 6000.00, 0.00), (2000.00, 10.00), 2.50
M 15.10000 13 (6000.00, 6000.00, 0.00), (6000.00, 10.00), 2.50
M 15.10000 14 (4000.00, 10.00, 0.00), (4000.00, 6000.00), 2.50
r 55.800781511 _14_ MAC  --- 17 vectorbasedforward 300 [0 8000000 ffff0008 0] [energy 199982.907044 ei 9.677 es 0.000 et 0.000 er 7.416] ------- [60:300 17:0 0 0] 
M 15.10000 12 (2000.00, 6000.00, 0.00), (2000.00, 10.00), 2.50
M 15.10000 13 (6000.00, 6000.00, 0.00), (6000.00, 10.00), 2.50
M 15.10000 14 (4000.00, 10.00, 0.00), (4000.00, 6000.00), 2.50
r 56.044025000 _0_ MAC  --- 14 vectorbasedforward 300 [0 1000000 ffff0008 0] [energy 199907.215195 ei 8.737 es 0.000 et 74.160 er 9.888] ------- [60:300 14:0 0 0] 
r 56.044025000 _6_ MAC  --- 15 vectorbasedforward 300 [0 7000000 ffff0008 0] [energy 199830.102356 ei 7.381 es 0.000 et 148.320 er 14.197] ------- [60:300 15:0 0 0] 
r 56.596309750 _9_ MAC  --- 15 vectorbasedforward 300 [0 7000000 ffff0008 0] [energy 199905.127138 ei 8.353 es 0.000 et 74.160 er 12.360] ------- [60:300 15:0 0 0] 
s 56.596309750 _9_ MAC  --- 19 vectorbasedforward 309 [0 9000000 ffff0008 0] [energy 199905.127138 ei 8.353 es 0.000 et 74.160 er 12.360] ------- [60:309 19:0 0 0] 
M 15.10000 12 (2000.00, 6000.00, 0.00), (2000.00, 10.00), 2.50
M 15.10000 13 (6000.00, 6000.00, 0.00), (6000.00, 10.00), 2.50
M 15.10000 14 (4000.00, 10.00, 0.00), (4000.00, 6000.00), 2.50
M 15.10000 12 (2000.00, 6000.00, 0.00), (2000.00, 10.00), 2.50
M 15.10000 13 (6000.00, 6000.00, 0.00), (6000.00, 10.00), 2.50
M 15.10000 14 (4000.00, 10.00, 0.00), (4000.00, 6000.00), 2.50
s 58.433358333 _5_ MAC  --- 22 vectorbasedforward 309 [0 5000000 ffff0008 0] [energy 199903.935467 ei 8.406 es 0.000 et 74.160 er 13.499] ------- [60:309 22:0 0 0] 
s 58.433358333 _11_ MAC  --- 23 vectorbasedforward 309 [0 b000000 ffff0008 0] [energy 199981.895011 ei 9.974 es 0.000 et 0.000 er 8.131] ------- [60:309 23:0 0 0] 
M 15.10000 12 (2000.00, 6000.00, 0.00), (2000.00, 10.00), 2.50
M 15.10000 13 (6000.00, 6000.00, 0.00), (6000.00, 10.00), 2.50
M 15.10000 14 (4000.00, 10.00, 0.00), (4000.00, 6000.00), 2.50
r 59.963551641 _13_ MAC  --- 19 vectorbasedforward 300 [0 9000000 ffff0008 0] [energy 199980.096890 ei 10.015 es 0.000 et 0.000 er 9.888] ------- [60:300 19:0 0 0] 
M 15.10000 12 (2000.00, 6000.00, 0.00), (2000.00, 10.00), 2.50
M 15.10000 13 (6000.00, 6000.00, 0.00), (6000.00, 10.00), 2.50
M 15.10000 14 (4000.00, 10.00, 0.00), (4000.00, 6000.00), 2.50
r 60.401643083 _6_ MAC  --- 19 vectorbasedforward 300 [0 9000000 ffff0008 0] [energy 199827.253233 ei 7.758 es 0.000 et 148.320 er 16.669] ------- [60:300 19:0 0 0] 
M 15.10000 12 (2000.00, 6000.00, 0.00), (2000.00, 10.00), 2.50
M 15.10000 13 (6000.00, 6000.00, 0.00), (6000.00, 10.00), 2.50
M 15.10000 14 (4000.00, 10.00, 0.00), (4000.00, 6000.00), 2.50
r 61.794136771 _14_ MAC  --- 22 vectorbasedforward 300 [0 5000000 ffff0008 0] [energy 199979.730773 ei 10.381 es 0.000 et 0.000 er 9.888] ------- [60:300 22:0 0 0] 
M 15.10000 12 (2000.00, 6000.00, 0.00), (2000.00, 10.00), 2.50
M 15.10000 13 (6000.00, 6000.00, 0.00), (6000.00, 10.00), 2.50
M 15.10000 14 (4000.00, 10.00, 0.00), (4000.00, 6000.00), 2.50
r 62.238691667 _4_ MAC  --- 22 vectorbasedforward 300 [0 5000000 ffff0008 0] [energy 199895.279570 ei 7.302 es 0.000 et 74.160 er 23.259] ------- [60:300 22:0 0 0] 
s 62.238691667 _4_ MAC  --- 20 vectorbasedforward 309 [0 4000000 ffff0008 0] [energy 199895.279570 ei 7.302 es 0.000 et 74.160 er 23.259] ------- [60:309 20:0 0 0] 
r 62.238691667 _2_ MAC  --- 22 vectorbasedforward 300 [0 5000000 ffff0008 0] [energy 199758.645062 ei 8.987 es 0.000 et 222.480 er 9.888] ------- [60:300 22:0 0 0] 
r 62.790976416 _1_ MAC  --- 22 vectorbasedforward 300 [0 5000000 ffff0008 0] [energy 199827.628996 ei 8.449 es 0.000 et 148.320 er 15.602] ------- [60:300 22:0 0 0] 
M 15.10000 12 (2000.00, 6000.00, 0.00), (2000.00, 10.00), 2.50
M 15.10000 13 (6000.00, 6000.00, 0.00), (6000.00, 10.00), 2.50
M 15.10000 14 (4000.00, 10.00, 0.00), (4000.00, 6000.00), 2.50
M 15.10000 12 (2000.00, 6000.00, 0.00), (2000.00, 10.00), 2.50
M 15.10000 13 (6000.00, 6000.00, 0.00), (6000.00, 10.00), 2.50
M 15.10000 14 (4000.00, 10.00, 0.00), (4000.00, 6000.00), 2.50
M 15.10000 12 (2000.00, 6000.00, 0.00), (2000.00, 10.00), 2.50
M 15.10000 13 (6000.00, 6000.00, 0.00), (6000.00, 10.00), 2.50
M 15.10000 14 (4000.00, 10.00, 0.00), (4000.00, 6000.00), 2.50
M 15.10000 12 (2000.00, 6000.00, 0.00), (2000.00, 10.00), 2.50
M 15.10000 13 (6000.00, 6000.00, 0.00), (6000.00, 10.00), 2.50
M 15.10000 14 (4000.00, 10.00, 0.00), (4000.00, 6000.00), 2.50
r 66.044025000 _3_ MAC  --- 20 vectorbasedforward 300 [0 4000000 ffff0008 0] [energy 199899.815728 ei 9.387 es 0.000 et 74.160 er 16.637] ------- [60:300 20:0 0 0] 
s 66.044025000 _3_ MAC  --- 18 vectorbasedforward 309 [0 3000000 ffff0008 0] [energy 199899.815728 ei 9.387 es 0.000 et 74.160 er 16.637] ------- [60:309 18:0 0 0] 
r 66.044025000 _1_ MAC  --- 20 vectorbasedforward 300 [0 4000000 ffff0008 0] [energy 199825.000786 ei 8.605 es 0.000 et 148.320 er 18.074] ------- [60:300 20:0 0 0] 
r 66.044025000 _5_ MAC  --- 20 vectorbasedforward 300 [0 4000000 ffff0008 0] [energy 199826.683462 ei 9.026 es 0.000 et 148.320 er 15.971] ------- [60:300 20:0 0 0] 
r 66.044025000 _7_ MAC  --- 20 vectorbasedforward 300 [0 4000000 ffff0008 0] [energy 199822.052678 ei 7.868 es 0.000 et 148.320 er 21.759] ------- [60:300 20:0 0 0] 
r 66.596309750 _2_ MAC  --- 20 vectorbasedforward 300 [0 4000000 ffff0008 0] [energy 199755.795938 ei 9.364 es 0.000 et 222.480 er 12.360] ------- [60:300 20:0 0 0] 
r 66.596309750 _0_ MAC  --- 20 vectorbasedforward 300 [0 4000000 ffff0008 0] [energy 199903.127138 ei 10.353 es 0.000 et 74.160 er 12.360] ------- [60:300 20:0 0 0] 
r 66.596309750 _6_ MAC  --- 20 vectorbasedforward 300 [0 4000000 ffff0008 0] [energy 199824.036699 ei 8.502 es 0.000 et 148.320 er 19.141] ------- [60:300 20:0 0 0] 
r 66.596309750 _8_ MAC  --- 20 vectorbasedforward 300 [0 4000000 ffff0008 0] [energy 199829.969499 ei 9.985 es 0.000 et 148.320 er 11.725] ------- [60:300 20:0 0 0] 
M 15.10000 12 (2000.00, 6000.00, 0.00), (2000.00, 10.00), 2.50
M 15.10000 13 (6000.00, 6000.00, 0.00), (6000.00, 10.00), 2.50
M 15.10000 14 (4000.00, 10.00, 0.00), (4000.00, 6000.00), 2.50
s 67.366320591 _2_ MAC  --- 20 vectorbasedforward 309 [0 2000000 ffff0008 0] [energy 199755.715200 ei 9.445 es 0.000 et 222.480 er 12.360] ------- [60:309 20:0 0 0] 
M 15.10000 12 (2000.00, 6000.00, 0.00), (2000.00, 10.00), 2.50
M 15.10000 13 (6000.00, 6000.00, 0.00), (6000.00, 10.00), 2.50
M 15.10000 14 (4000.00, 10.00, 0.00), (4000.00, 6000.00), 2.50
M 15.10000 12 (2000.00, 6000.00, 0.00), (2000.00, 10.00), 2.50
M 15.10000 13 (6000.00, 6000.00, 0.00), (6000.00, 10.00), 2.50
M 15.10000 14 (4000.00, 10.00, 0.00), (4000.00, 6000.00), 2.50
r 69.400835202 _12_ MAC  --- 18 vectorbasedforward 300 [0 3000000 ffff0008 0] [energy 199980.187033 ei 12.397 es 0.000 et 0.000 er 7.416] ------- [60:300 18:0 0 0] 
r 69.849358333 _0_ MAC  --- 18 vectorbasedforward 300 [0 3000000 ffff0008 0] [energy 199900.498928 ei 10.509 es 0.000 et 74.160 er 14.832] ------- [60:300 18:0 0 0] 
r 69.849358333 _6_ MAC  --- 18 vectorbasedforward 300 [0 3000000 ffff0008 0] [energy 199821.408489 ei 8.658 es 0.000 et 148.320 er 21.613] ------- [60:300 18:0 0 0] 
M 15.10000 12 (2000.00, 6000.00, 0.00), (2000.00, 10.00), 2.50
M 15.10000 13 (6000.00, 6000.00, 0.00), (6000.00, 10.00), 2.50
M 15.10000 14 (4000.00, 10.00, 0.00), (4000.00, 6000.00), 2.50
r 70.401643083 _7_ MAC  --- 18 vectorbasedforward 300 [0 3000000 ffff0008 0] [energy 199819.203555 ei 8.245 es 0.000 et 148.320 er 24.231] ------- [60:300 18:0 0 0] 
M 15.10000 12 (2000.00, 6000.00, 0.00), (2000.00, 10.00), 2.50
M 15.10000 13 (6000.00, 6000.00, 0.00), (6000.00, 10.00), 2.50
M 15.10000 14 (4000.00, 10.00, 0.00), (4000.00, 6000.00), 2.50
r 71.171653924 _5_ MAC  --- 20 vectorbasedforward 300 [0 2000000 ffff0008 0] [energy 199823.680336 ei 9.557 es 0.000 et 148.320 er 18.443] ------- [60:300 20:0 0 0] 
M 15.10000 12 (2000.00, 6000.00, 0.00), (2000.00, 10.00), 2.50
M 15.10000 13 (6000.00, 6000.00, 0.00), (6000.00, 10.00), 2.50
M 15.10000 14 (4000.00, 10.00, 0.00), (4000.00, 6000.00), 2.50
M 15.10000 12 (2000.00, 6000.00, 0.00), (2000.00, 10.00), 2.50
M 15.10000 13 (6000.00, 6000.00, 0.00), (6000.00, 10.00), 2.50
M 15.10000 14 (4000.00, 10.00, 0.00), (4000.00, 6000.00), 2.50
M 15.10000 12 (2000.00, 6000.00, 0.00), (2000.00, 10.00), 2.50
M 15.10000 13 (6000.00, 6000.00, 0.00), (6000.00, 10.00), 2.50
M 15.10000 14 (4000.00, 10.00, 0.00), (4000.00, 6000.00), 2.50
M 15.10000 12 (2000.00, 6000.00, 0.00), (2000.00, 10.00), 2.50
M 15.10000 13 (6000.00, 6000.00, 0.00), (6000.00, 10.00), 2.50
M 15.10000 14 (4000.00, 10.00, 0.00), (4000.00, 6000.00), 2.50
M 15.10000 12 (2000.00, 6000.00, 0.00), (2000.00, 10.00), 2.50
M 15.10000 13 (6000.00, 6000.00, 0.00), (6000.00, 10.00), 2.50
M 15.10000 14 (4000.00, 10.00, 0.00), (4000.00, 6000.00), 2.50
M 15.10000 12 (2000.00, 6000.00, 0.00), (2000.00, 10.00), 2.50
M 15.10000 13 (6000.00, 6000.00, 0.00), (6000.00, 10.00), 2.50
M 15.10000 14 (4000.00, 10.00, 0.00), (4000.00, 6000.00), 2.50
M 15.10000 12 (2000.00, 6000.00, 0.00), (2000.00, 10.00), 2.50
M 15.10000 13 (6000.00, 6000.00, 0.00), (6000.00, 10.00), 2.50
M 15.10000 14 (4000.00, 10.00, 0.00), (4000.00, 6000.00), 2.50
M 15.10000 12 (2000.00, 6000.00, 0.00), (2000.00, 10.00), 2.50
M 15.10000 13 (6000.00, 6000.00, 0.00), (6000.00, 10.00), 2.50
M 15.10000 14 (4000.00, 10.00, 0.00), (4000.00, 6000.00), 2.50
M 15.10000 12 (2000.00, 6000.00, 0.00), (2000.00, 10.00), 2.50
M 15.10000 13 (6000.00, 6000.00, 0.00), (6000.00, 10.00), 2.50
M 15.10000 14 (4000.00, 10.00, 0.00), (4000.00, 6000.00), 2.50
M 15.10000 12 (2000.00, 6000.00, 0.00), (2000.00, 10.00), 2.50
M 15.10000 13 (6000.00, 6000.00, 0.00), (6000.00, 10.00), 2.50
M 15.10000 14 (4000.00, 10.00, 0.00), (4000.00, 6000.00), 2.50
s 81.766691667 _0_ MAC  --- 24 vectorbasedforward 309 [0 0 ffff0008 0] [energy 199898.268800 ei 12.739 es 0.000 et 74.160 er 14.832] ------- [60:309 24:0 0 0] 
s 81.766691667 _6_ MAC  --- 25 vectorbasedforward 309 [0 6000000 ffff0008 0] [energy 199819.178361 ei 10.889 es 0.000 et 148.320 er 21.613] ------- [60:309 25:0 0 0] 
M 15.10000 12 (2000.00, 6000.00, 0.00), (2000.00, 10.00), 2.50
M 15.10000 13 (6000.00, 6000.00, 0.00), (6000.00, 10.00), 2.50
M 15.10000 14 (4000.00, 10.00, 0.00), (4000.00, 6000.00), 2.50
M 15.10000 12 (2000.00, 6000.00, 0.00), (2000.00, 10.00), 2.50
M 15.10000 13 (6000.00, 6000.00, 0.00), (6000.00, 10.00), 2.50
M 15.10000 14 (4000.00, 10.00, 0.00), (4000.00, 6000.00), 2.50
M 15.10000 12 (2000.00, 6000.00, 0.00), (2000.00, 10.00), 2.50
M 15.10000 13 (6000.00, 6000.00, 0.00), (6000.00, 10.00), 2.50
M 15.10000 14 (4000.00, 10.00, 0.00), (4000.00, 6000.00), 2.50
M 15.10000 12 (2000.00, 6000.00, 0.00), (2000.00, 10.00), 2.50
M 15.10000 13 (6000.00, 6000.00, 0.00), (6000.00, 10.00), 2.50
M 15.10000 14 (4000.00, 10.00, 0.00), (4000.00, 6000.00), 2.50
r 85.106497160 _12_ MAC  --- 24 vectorbasedforward 300 [0 0 ffff0008 0] [energy 199975.068301 ei 15.044 es 0.000 et 0.000 er 9.888] ------- [60:300 24:0 0 0] 
r 85.106497160 _13_ MAC  --- 25 vectorbasedforward 300 [0 6000000 ffff0008 0] [energy 199973.090701 ei 14.549 es 0.000 et 0.000 er 12.360] ------- [60:300 25:0 0 0] 
r 85.572025000 _1_ MAC  --- 24 vectorbasedforward 300 [0 0 ffff0008 0] [energy 199816.523978 ei 11.368 es 0.000 et 148.320 er 23.788] ------- [60:300 24:0 0 0] 
s 85.572025000 _1_ MAC  --- 26 vectorbasedforward 309 [0 1000000 ffff0008 0] [energy 199816.523978 ei 11.368 es 0.000 et 148.320 er 23.788] ------- [60:309 26:0 0 0] 
r 85.572025000 _7_ MAC  --- 25 vectorbasedforward 300 [0 6000000 ffff0008 0] [energy 199814.191878 ei 10.785 es 0.000 et 148.320 er 26.703] ------- [60:300 25:0 0 0] 
s 85.572025000 _7_ MAC  --- 27 vectorbasedforward 309 [0 7000000 ffff0008 0] [energy 199814.191878 ei 10.785 es 0.000 et 148.320 er 26.703] ------- [60:309 27:0 0 0] 
r 85.572025000 _9_ MAC  --- 25 vectorbasedforward 300 [0 6000000 ffff0008 0] [energy 199823.688795 ei 13.159 es 0.000 et 148.320 er 14.832] ------- [60:300 25:0 0 0] 
s 85.766691667 _2_ MAC  --- 28 vectorbasedforward 309 [0 2000000 ffff0008 0] [energy 199678.449600 ei 12.550 es 0.000 et 296.640 er 12.360] ------- [60:309 28:0 0 0] 
s 85.766691667 _8_ MAC  --- 29 vectorbasedforward 309 [0 8000000 ffff0008 0] [energy 199826.288761 ei 13.666 es 0.000 et 148.320 er 11.725] ------- [60:309 29:0 0 0] 
M 15.10000 12 (2000.00, 6000.00, 0.00), (2000.00, 10.00), 2.50
M 15.10000 13 (6000.00, 6000.00, 0.00), (6000.00, 10.00), 2.50
M 15.10000 14 (4000.00, 10.00, 0.00), (4000.00, 6000.00), 2.50
r 86.124309750 _10_ MAC  --- 25 vectorbasedforward 300 [0 6000000 ffff0008 0] [energy 199892.601577 ei 12.603 es 0.000 et 74.160 er 20.635] ------- [60:300 25:0 0 0] 
s 86.124309750 _10_ MAC  --- 21 vectorbasedforward 309 [0 a000000 ffff0008 0] [energy 199892.601577 ei 12.603 es 0.000 et 74.160 er 20.635] ------- [60:309 21:0 0 0] 
M 15.10000 12 (2000.00, 6000.00, 0.00), (2000.00, 10.00), 2.50
M 15.10000 13 (6000.00, 6000.00, 0.00), (6000.00, 10.00), 2.50
M 15.10000 14 (4000.00, 10.00, 0.00), (4000.00, 6000.00), 2.50
M 15.10000 12 (2000.00, 6000.00, 0.00), (2000.00, 10.00), 2.50
M 15.10000 13 (6000.00, 6000.00, 0.00), (6000.00, 10.00), 2.50
M 15.10000 14 (4000.00, 10.00, 0.00), (4000.00, 6000.00), 2.50
M 15.10000 12 (2000.00, 6000.00, 0.00), (2000.00, 10.00), 2.50
M 15.10000 13 (6000.00, 6000.00, 0.00), (6000.00, 10.00), 2.50
M 15.10000 14 (4000.00, 10.00, 0.00), (4000.00, 6000.00), 2.50