n -t * -s 0  -x 1000 -y 5000 -Z 0 -z 1000  -v circle -c green
n -t * -s 1  -x 1000 -y 3000 -Z 0 -z 1000  -v circle -c green
n -t * -s 2  -x 1000 -y 1000 -Z 0 -z 1000  -v circle -c green
n -t * -s 3  -x 3000 -y 5000 -Z 0 -z 1000  -v circle -c green
n -t * -s 4  -x 3000 -y 3000 -Z 0 -z 1000  -v circle -c green
n -t * -s 5  -x 3000 -y 1000 -Z 0 -z 1000  -v circle -c green
n -t * -s 6  -x 5000 -y 5000 -Z 0 -z 1000  -v circle -c green
n -t * -s 7  -x 5000 -y 3000 -Z 0 -z 1000  -v circle -c green
n -t * -s 8  -x 5000 -y 1000 -Z 0 -z 1000  -v circle -c green
n -t * -s 9  -x 7000 -y 5000 -Z 0 -z 1000  -v circle -c green
n -t * -s 10  -x 7000 -y 3000 -Z 0 -z 1000  -v circle -c green
n -t * -s 11  -x 7000 -y 1000 -Z 0 -z 1000  -v circle -c green
n -t * -s 12  -x 2000 -y 6000 -Z 0 -z 1000  -v circle -c green
n -t * -s 13  -x 6000 -y 6000 -Z 0 -z 1000  -v circle -c green
V -t * -v 1.0a5 -a 0
W -t * -x 10000 -y 6000
A -t * -n 1 -p 0 -o 0xffffffff -c 31 -a 1
A -t * -h 1 -m 2147483647 -s 0
n -t 15.100000 -s 12 -x 2000.000000 -y 6000.000000 -U 0.000000 -V -2.500000 -T 2396.000000
n -t 15.100000 -s 13 -x 6000.000000 -y 6000.000000 -U 0.000000 -V -2.500000 -T 2396.000000
+ -t 16.100025000 -s 12 -d -1 -p audio -e 60 -c 2 -a 0 -i 1 -k MAC 
- -t 16.100025000 -s 12 -d -1 -p audio -e 60 -c 2 -a 0 -i 1 -k MAC
n -t 16.100025000 -s 12 -S COLOR -c red -o yellow
h -t 16.100025000 -s 12 -d -1 -p audio -e 60 -c 2 -a 0 -i 1 -k MAC -R 3000.000000
v -t 16.100025000 -e sim_annotation 16.100025000 1 node 12 sendout packet (audio) 1
n -t 17.329848238 -s 0 -S COLOR -c red -o yellow
r -t 17.329848238 -s 0 -d -1 -p audio -e 60 -c 2 -a 0 -i 1 -k MAC -R 3000.000000
v -t 17.329848238 -e sim_annotation 17.329848238 2 node 0 receive packet(audio) 1
n -t 17.329848238 -s 3 -S COLOR -c red -o yellow
r -t 17.329848238 -s 3 -d -1 -p audio -e 60 -c 2 -a 0 -i 1 -k MAC -R 3000.000000
v -t 17.329848238 -e sim_annotation 17.329848238 3 node 3 receive packet(audio) 1
+ -t 19.100025000 -s 13 -d -1 -p audio -e 60 -c 2 -a 0 -i 0 -k MAC 
- -t 19.100025000 -s 13 -d -1 -p audio -e 60 -c 2 -a 0 -i 0 -k MAC
n -t 19.100025000 -s 13 -S COLOR -c red -o yellow
h -t 19.100025000 -s 13 -d -1 -p audio -e 60 -c 2 -a 0 -i 0 -k MAC -R 3000.000000
v -t 19.100025000 -e sim_annotation 19.100025000 4 node 13 sendout packet (audio) 0
n -t 20.326323811 -s 6 -S COLOR -c red -o yellow
r -t 20.326323811 -s 6 -d -1 -p audio -e 60 -c 2 -a 0 -i 0 -k MAC -R 3000.000000
v -t 20.326323811 -e sim_annotation 20.326323811 5 node 6 receive packet(audio) 0
n -t 20.326323811 -s 9 -S COLOR -c red -o yellow
r -t 20.326323811 -s 9 -d -1 -p audio -e 60 -c 2 -a 0 -i 0 -k MAC -R 3000.000000
v -t 20.326323811 -e sim_annotation 20.326323811 6 node 9 receive packet(audio) 0
+ -t 58.679898238 -s 0 -d -1 -p RTS -e 44 -c 2 -a 0 -i 0 -k MAC 
- -t 58.679898238 -s 0 -d -1 -p RTS -e 44 -c 2 -a 0 -i 0 -k MAC
n -t 58.679898238 -s 0 -S COLOR -c red -o yellow
h -t 58.679898238 -s 0 -d -1 -p RTS -e 44 -c 2 -a 0 -i 0 -k MAC -R 3000.000000
v -t 58.679898238 -e sim_annotation 58.679898238 7 node 0 sendout packet (RTS) 0
n -t 59.733018145 -s 12 -S COLOR -c red -o yellow
r -t 59.733018145 -s 12 -d -1 -p RTS -e 44 -c 2 -a 0 -i 0 -k MAC -R 3000.000000
v -t 59.733018145 -e sim_annotation 59.733018145 8 node 12 receive packet(RTS) 0
+ -t 59.833018145 -s 12 -d -1 -p CTS -e 38 -c 2 -a 0 -i 0 -k MAC 
- -t 59.833018145 -s 12 -d -1 -p CTS -e 38 -c 2 -a 0 -i 0 -k MAC
h -t 59.833018145 -s 12 -d -1 -p CTS -e 38 -c 2 -a 0 -i 0 -k MAC -R 3000.000000
v -t 59.833018145 -e sim_annotation 59.833018145 9 node 12 sendout packet (CTS) 0
+ -t 60.176373811 -s 6 -d -1 -p RTS -e 44 -c 2 -a 0 -i 0 -k MAC 
- -t 60.176373811 -s 6 -d -1 -p RTS -e 44 -c 2 -a 0 -i 0 -k MAC
n -t 60.176373811 -s 6 -S COLOR -c red -o yellow
h -t 60.176373811 -s 6 -d -1 -p RTS -e 44 -c 2 -a 0 -i 0 -k MAC -R 3000.000000
v -t 60.176373811 -e sim_annotation 60.176373811 10 node 6 sendout packet (RTS) 0
n -t 60.836860657 -s 0 -S COLOR -c red -o yellow
r -t 60.836860657 -s 0 -d -1 -p CTS -e 38 -c 2 -a 0 -i 0 -k MAC -R 3000.000000
v -t 60.836860657 -e sim_annotation 60.836860657 11 node 0 receive packet(CTS) 0
+ -t 60.936860657 -s 0 -d -1 -p udp -e 352 -c 2 -a 0 -i 2 -k MAC 
- -t 60.936860657 -s 0 -d -1 -p udp -e 352 -c 2 -a 0 -i 2 -k MAC
h -t 60.936860657 -s 0 -d -1 -p udp -e 352 -c 2 -a 0 -i 2 -k MAC -R 3000.000000
v -t 60.936860657 -e sim_annotation 60.936860657 12 node 0 sendout packet (udp) 2
n -t 61.227836409 -s 13 -S COLOR -c red -o yellow
r -t 61.227836409 -s 13 -d -1 -p RTS -e 44 -c 2 -a 0 -i 0 -k MAC -R 3000.000000
v -t 61.227836409 -e sim_annotation 61.227836409 13 node 13 receive packet(RTS) 0
+ -t 61.327836409 -s 13 -d -1 -p CTS -e 38 -c 2 -a 0 -i 0 -k MAC 
- -t 61.327836409 -s 13 -d -1 -p CTS -e 38 -c 2 -a 0 -i 0 -k MAC
h -t 61.327836409 -s 13 -d -1 -p CTS -e 38 -c 2 -a 0 -i 0 -k MAC -R 3000.000000
v -t 61.327836409 -e sim_annotation 61.327836409 14 node 13 sendout packet (CTS) 0
n -t 62.330026449 -s 6 -S COLOR -c red -o yellow
r -t 62.330026449 -s 6 -d -1 -p CTS -e 38 -c 2 -a 0 -i 0 -k MAC -R 3000.000000
v -t 62.330026449 -e sim_annotation 62.330026449 15 node 6 receive packet(CTS) 0
+ -t 62.430026449 -s 6 -d -1 -p udp -e 352 -c 2 -a 0 -i 4 -k MAC 
- -t 62.430026449 -s 6 -d -1 -p udp -e 352 -c 2 -a 0 -i 4 -k MAC
h -t 62.430026449 -s 6 -d -1 -p udp -e 352 -c 2 -a 0 -i 4 -k MAC -R 3000.000000
v -t 62.430026449 -e sim_annotation 62.430026449 16 node 6 sendout packet (udp) 4
+ -t 63.661052657 -s 0 -d -1 -p cbr -e 352 -c 2 -a 0 -i 6 -k MAC 
- -t 63.661052657 -s 0 -d -1 -p cbr -e 352 -c 2 -a 0 -i 6 -k MAC
h -t 63.661052657 -s 0 -d -1 -p cbr -e 352 -c 2 -a 0 -i 6 -k MAC -R 3000.000000
v -t 63.661052657 -e sim_annotation 63.661052657 17 node 0 sendout packet (cbr) 6
n -t 64.451482530 -s 12 -S COLOR -c red -o yellow
r -t 64.451482530 -s 12 -d -1 -p udp -e 300 -c 2 -a 0 -i 2 -k MAC -R 3000.000000
v -t 64.451482530 -e sim_annotation 64.451482530 18 node 12 receive packet(udp) 2
+ -t 65.154218449 -s 6 -d -1 -p cbr -e 352 -c 2 -a 0 -i 8 -k MAC 
- -t 65.154218449 -s 6 -d -1 -p cbr -e 352 -c 2 -a 0 -i 8 -k MAC
h -t 65.154218449 -s 6 -d -1 -p cbr -e 352 -c 2 -a 0 -i 8 -k MAC -R 3000.000000
v -t 65.154218449 -e sim_annotation 65.154218449 19 node 6 sendout packet (cbr) 8
n -t 65.943000559 -s 13 -S COLOR -c red -o yellow
r -t 65.943000559 -s 13 -d -1 -p udp -e 300 -c 2 -a 0 -i 4 -k MAC -R 3000.000000
v -t 65.943000559 -e sim_annotation 65.943000559 20 node 13 receive packet(udp) 4
r -t 67.172671232 -s 12 -d -1 -p cbr -e 300 -c 2 -a 0 -i 6 -k MAC -R 3000.000000
v -t 67.172671232 -e sim_annotation 67.172671232 21 node 12 receive packet(cbr) 6
+ -t 67.272671232 -s 12 -d -1 -p ACK -e 38 -c 2 -a 0 -i 0 -k MAC 
- -t 67.272671232 -s 12 -d -1 -p ACK -e 38 -c 2 -a 0 -i 0 -k MAC
h -t 67.272671232 -s 12 -d -1 -p ACK -e 38 -c 2 -a 0 -i 0 -k MAC -R 3000.000000
v -t 67.272671232 -e sim_annotation 67.272671232 22 node 12 sendout packet (ACK) 0
r -t 68.268328396 -s 0 -d -1 -p ACK -e 38 -c 2 -a 0 -i 0 -k MAC -R 3000.000000
v -t 68.268328396 -e sim_annotation 68.268328396 23 node 0 receive packet(ACK) 0
r -t 68.664196431 -s 13 -d -1 -p cbr -e 300 -c 2 -a 0 -i 8 -k MAC -R 3000.000000
v -t 68.664196431 -e sim_annotation 68.664196431 24 node 13 receive packet(cbr) 8
+ -t 68.764196431 -s 13 -d -1 -p ACK -e 38 -c 2 -a 0 -i 0 -k MAC 
- -t 68.764196431 -s 13 -d -1 -p ACK -e 38 -c 2 -a 0 -i 0 -k MAC
h -t 68.764196431 -s 13 -d -1 -p ACK -e 38 -c 2 -a 0 -i 0 -k MAC -R 3000.000000
v -t 68.764196431 -e sim_annotation 68.764196431 25 node 13 sendout packet (ACK) 0
r -t 69.758224408 -s 6 -d -1 -p ACK -e 38 -c 2 -a 0 -i 0 -k MAC -R 3000.000000
v -t 69.758224408 -e sim_annotation 69.758224408 26 node 6 receive packet(ACK) 0
+ -t 88.929898238 -s 3 -d -1 -p RTS -e 44 -c 2 -a 0 -i 0 -k MAC 
- -t 88.929898238 -s 3 -d -1 -p RTS -e 44 -c 2 -a 0 -i 0 -k MAC
n -t 88.929898238 -s 3 -S COLOR -c red -o yellow
h -t 88.929898238 -s 3 -d -1 -p RTS -e 44 -c 2 -a 0 -i 0 -k MAC -R 3000.000000
v -t 88.929898238 -e sim_annotation 88.929898238 27 node 3 sendout packet (RTS) 0
r -t 89.950301671 -s 12 -d -1 -p RTS -e 44 -c 2 -a 0 -i 0 -k MAC -R 3000.000000
v -t 89.950301671 -e sim_annotation 89.950301671 28 node 12 receive packet(RTS) 0
+ -t 90.050301671 -s 12 -d -1 -p CTS -e 38 -c 2 -a 0 -i 0 -k MAC 
- -t 90.050301671 -s 12 -d -1 -p CTS -e 38 -c 2 -a 0 -i 0 -k MAC
h -t 90.050301671 -s 12 -d -1 -p CTS -e 38 -c 2 -a 0 -i 0 -k MAC -R 3000.000000
v -t 90.050301671 -e sim_annotation 90.050301671 29 node 12 sendout packet (CTS) 0
n -t 91.021526245 -s 3 -S COLOR -c red -o yellow
r -t 91.021526245 -s 3 -d -1 -p CTS -e 38 -c 2 -a 0 -i 0 -k MAC -R 3000.000000
v -t 91.021526245 -e sim_annotation 91.021526245 30 node 3 receive packet(CTS) 0
+ -t 91.121526245 -s 3 -d -1 -p udp -e 352 -c 2 -a 0 -i 7 -k MAC 
- -t 91.121526245 -s 3 -d -1 -p udp -e 352 -c 2 -a 0 -i 7 -k MAC
h -t 91.121526245 -s 3 -d -1 -p udp -e 352 -c 2 -a 0 -i 7 -k MAC -R 3000.000000
v -t 91.121526245 -e sim_annotation 91.121526245 31 node 3 sendout packet (udp) 7
+ -t 93.845718245 -s 3 -d -1 -p cbr -e 352 -c 2 -a 0 -i 11 -k MAC 
- -t 93.845718245 -s 3 -d -1 -p cbr -e 352 -c 2 -a 0 -i 11 -k MAC
h -t 93.845718245 -s 3 -d -1 -p cbr -e 352 -c 2 -a 0 -i 11 -k MAC -R 3000.000000
v -t 93.845718245 -e sim_annotation 93.845718245 32 node 3 sendout packet (cbr) 11
r -t 94.603625989 -s 12 -d -1 -p udp -e 300 -c 2 -a 0 -i 7 -k MAC -R 3000.000000
v -t 94.603625989 -e sim_annotation 94.603625989 33 node 12 receive packet(udp) 7
r -t 97.324967607 -s 12 -d -1 -p cbr -e 300 -c 2 -a 0 -i 11 -k MAC -R 3000.000000
v -t 97.324967607 -e sim_annotation 97.324967607 34 node 12 receive packet(cbr) 11
+ -t 97.424967607 -s 12 -d -1 -p ACK -e 38 -c 2 -a 0 -i 0 -k MAC 
- -t 97.424967607 -s 12 -d -1 -p ACK -e 38 -c 2 -a 0 -i 0 -k MAC
h -t 97.424967607 -s 12 -d -1 -p ACK -e 38 -c 2 -a 0 -i 0 -k MAC -R 3000.000000
v -t 97.424967607 -e sim_annotation 97.424967607 35 node 12 sendout packet (ACK) 0
r -t 98.388494223 -s 3 -d -1 -p ACK -e 38 -c 2 -a 0 -i 0 -k MAC -R 3000.000000
v -t 98.388494223 -e sim_annotation 98.388494223 36 node 3 receive packet(ACK) 0
+ -t 98.426373811 -s 9 -d -1 -p RTS -e 44 -c 2 -a 0 -i 0 -k MAC 
- -t 98.426373811 -s 9 -d -1 -p RTS -e 44 -c 2 -a 0 -i 0 -k MAC
n -t 98.426373811 -s 9 -S COLOR -c red -o yellow
h -t 98.426373811 -s 9 -d -1 -p RTS -e 44 -c 2 -a 0 -i 0 -k MAC -R 3000.000000
v -t 98.426373811 -e sim_annotation 98.426373811 37 node 9 sendout packet (RTS) 0
r -t 99.436863448 -s 13 -d -1 -p RTS -e 44 -c 2 -a 0 -i 0 -k MAC -R 3000.000000
v -t 99.436863448 -e sim_annotation 99.436863448 38 node 13 receive packet(RTS) 0
+ -t 99.536863448 -s 13 -d -1 -p CTS -e 38 -c 2 -a 0 -i 0 -k MAC 
- -t 99.536863448 -s 13 -d -1 -p CTS -e 38 -c 2 -a 0 -i 0 -k MAC
h -t 99.536863448 -s 13 -d -1 -p CTS -e 38 -c 2 -a 0 -i 0 -k MAC -R 3000.000000
v -t 99.536863448 -e sim_annotation 99.536863448 39 node 13 sendout packet (CTS) 0
n -t 100.498205502 -s 9 -S COLOR -c red -o yellow
r -t 100.498205502 -s 9 -d -1 -p CTS -e 38 -c 2 -a 0 -i 0 -k MAC -R 3000.000000
v -t 100.498205502 -e sim_annotation 100.498205502 40 node 9 receive packet(CTS) 0
+ -t 100.598205502 -s 9 -d -1 -p udp -e 352 -c 2 -a 0 -i 5 -k MAC 
- -t 100.598205502 -s 9 -d -1 -p udp -e 352 -c 2 -a 0 -i 5 -k MAC
h -t 100.598205502 -s 9 -d -1 -p udp -e 352 -c 2 -a 0 -i 5 -k MAC -R 3000.000000
v -t 100.598205502 -e sim_annotation 100.598205502 41 node 9 sendout packet (udp) 5
+ -t 103.322397502 -s 9 -d -1 -p cbr -e 352 -c 2 -a 0 -i 13 -k MAC 
- -t 103.322397502 -s 9 -d -1 -p cbr -e 352 -c 2 -a 0 -i 13 -k MAC
h -t 103.322397502 -s 9 -d -1 -p cbr -e 352 -c 2 -a 0 -i 13 -k MAC -R 3000.000000
v -t 103.322397502 -e sim_annotation 103.322397502 42 node 9 sendout packet (cbr) 13
r -t 104.070453086 -s 13 -d -1 -p udp -e 300 -c 2 -a 0 -i 5 -k MAC -R 3000.000000
v -t 104.070453086 -e sim_annotation 104.070453086 43 node 13 receive packet(udp) 5
r -t 106.791846323 -s 13 -d -1 -p cbr -e 300 -c 2 -a 0 -i 13 -k MAC -R 3000.000000
v -t 106.791846323 -e sim_annotation 106.791846323 44 node 13 receive packet(cbr) 13
+ -t 106.891846323 -s 13 -d -1 -p ACK -e 38 -c 2 -a 0 -i 0 -k MAC 
- -t 106.891846323 -s 13 -d -1 -p ACK -e 38 -c 2 -a 0 -i 0 -k MAC
h -t 106.891846323 -s 13 -d -1 -p ACK -e 38 -c 2 -a 0 -i 0 -k MAC -R 3000.000000
v -t 106.891846323 -e sim_annotation 106.891846323 45 node 13 sendout packet (ACK) 0
r -t 107.845650971 -s 9 -d -1 -p ACK -e 38 -c 2 -a 0 -i 0 -k MAC -R 3000.000000
v -t 107.845650971 -e sim_annotation 107.845650971 46 node 9 receive packet(ACK) 0
+ -t 112.179898238 -s 0 -d -1 -p RTS -e 44 -c 2 -a 0 -i 0 -k MAC 
- -t 112.179898238 -s 0 -d -1 -p RTS -e 44 -c 2 -a 0 -i 0 -k MAC
h -t 112.179898238 -s 0 -d -1 -p RTS -e 44 -c 2 -a 0 -i 0 -k MAC -R 3000.000000
v -t 112.179898238 -e sim_annotation 112.179898238 47 node 0 sendout packet (RTS) 0
r -t 113.176352737 -s 12 -d -1 -p RTS -e 44 -c 2 -a 0 -i 0 -k MAC -R 3000.000000
v -t 113.176352737 -e sim_annotation 113.176352737 48 node 12 receive packet(RTS) 0
+ -t 113.276352737 -s 12 -d -1 -p CTS -e 38 -c 2 -a 0 -i 0 -k MAC 
- -t 113.276352737 -s 12 -d -1 -p CTS -e 38 -c 2 -a 0 -i 0 -k MAC
h -t 113.276352737 -s 12 -d -1 -p CTS -e 38 -c 2 -a 0 -i 0 -k MAC -R 3000.000000
v -t 113.276352737 -e sim_annotation 113.276352737 49 node 12 sendout packet (CTS) 0
r -t 114.223705257 -s 0 -d -1 -p CTS -e 38 -c 2 -a 0 -i 0 -k MAC -R 3000.000000
v -t 114.223705257 -e sim_annotation 114.223705257 50 node 0 receive packet(CTS) 0
+ -t 114.323705257 -s 0 -d -1 -p udp -e 352 -c 2 -a 0 -i 10 -k MAC 
- -t 114.323705257 -s 0 -d -1 -p udp -e 352 -c 2 -a 0 -i 10 -k MAC
h -t 114.323705257 -s 0 -d -1 -p udp -e 352 -c 2 -a 0 -i 10 -k MAC -R 3000.000000
v -t 114.323705257 -e sim_annotation 114.323705257 51 node 0 sendout packet (udp) 10
+ -t 115.676373811 -s 6 -d -1 -p RTS -e 44 -c 2 -a 0 -i 0 -k MAC 
- -t 115.676373811 -s 6 -d -1 -p RTS -e 44 -c 2 -a 0 -i 0 -k MAC
h -t 115.676373811 -s 6 -d -1 -p RTS -e 44 -c 2 -a 0 -i 0 -k MAC -R 3000.000000
v -t 115.676373811 -e sim_annotation 115.676373811 52 node 6 sendout packet (RTS) 0
r -t 116.669323125 -s 13 -d -1 -p RTS -e 44 -c 2 -a 0 -i 0 -k MAC -R 3000.000000
v -t 116.669323125 -e sim_annotation 116.669323125 53 node 13 receive packet(RTS) 0
+ -t 116.769323125 -s 13 -d -1 -p CTS -e 38 -c 2 -a 0 -i 0 -k MAC 
- -t 116.769323125 -s 13 -d -1 -p CTS -e 38 -c 2 -a 0 -i 0 -k MAC
h -t 116.769323125 -s 13 -d -1 -p CTS -e 38 -c 2 -a 0 -i 0 -k MAC -R 3000.000000
v -t 116.769323125 -e sim_annotation 116.769323125 54 node 13 sendout packet (CTS) 0
+ -t 117.047897257 -s 0 -d -1 -p cbr -e 352 -c 2 -a 0 -i 14 -k MAC 
- -t 117.047897257 -s 0 -d -1 -p cbr -e 352 -c 2 -a 0 -i 14 -k MAC
h -t 117.047897257 -s 0 -d -1 -p cbr -e 352 -c 2 -a 0 -i 14 -k MAC -R 3000.000000
v -t 117.047897257 -e sim_annotation 117.047897257 55 node 0 sendout packet (cbr) 14
r -t 117.713182114 -s 6 -d -1 -p CTS -e 38 -c 2 -a 0 -i 0 -k MAC -R 3000.000000
v -t 117.713182114 -e sim_annotation 117.713182114 56 node 6 receive packet(CTS) 0
r -t 117.782007528 -s 12 -d -1 -p udp -e 300 -c 2 -a 0 -i 10 -k MAC -R 3000.000000
v -t 117.782007528 -e sim_annotation 117.782007528 57 node 12 receive packet(udp) 10
+ -t 117.813182114 -s 6 -d -1 -p udp -e 352 -c 2 -a 0 -i 12 -k MAC 
- -t 117.813182114 -s 6 -d -1 -p udp -e 352 -c 2 -a 0 -i 12 -k MAC
h -t 117.813182114 -s 6 -d -1 -p udp -e 352 -c 2 -a 0 -i 12 -k MAC -R 3000.000000
v -t 117.813182114 -e sim_annotation 117.813182114 58 node 6 sendout packet (udp) 12
r -t 120.503478750 -s 12 -d -1 -p cbr -e 300 -c 2 -a 0 -i 14 -k MAC -R 3000.000000
v -t 120.503478750 -e sim_annotation 120.503478750 59 node 12 receive packet(cbr) 14
+ -t 120.537374114 -s 6 -d -1 -p cbr -e 352 -c 2 -a 0 -i 16 -k MAC 
- -t 120.537374114 -s 6 -d -1 -p cbr -e 352 -c 2 -a 0 -i 16 -k MAC
h -t 120.537374114 -s 6 -d -1 -p cbr -e 352 -c 2 -a 0 -i 16 -k MAC -R 3000.000000
v -t 120.537374114 -e sim_annotation 120.537374114 60 node 6 sendout packet (cbr) 16
+ -t 120.603478750 -s 12 -d -1 -p ACK -e 38 -c 2 -a 0 -i 0 -k MAC 
- -t 120.603478750 -s 12 -d -1 -p ACK -e 38 -c 2 -a 0 -i 0 -k MAC
h -t 120.603478750 -s 12 -d -1 -p ACK -e 38 -c 2 -a 0 -i 0 -k MAC -R 3000.000000
v -t 120.603478750 -e sim_annotation 120.603478750 61 node 12 sendout packet (ACK) 0
r -t 121.268002143 -s 13 -d -1 -p udp -e 300 -c 2 -a 0 -i 12 -k MAC -R 3000.000000
v -t 121.268002143 -e sim_annotation 121.268002143 62 node 13 receive packet(udp) 12
r -t 121.543533126 -s 0 -d -1 -p ACK -e 38 -c 2 -a 0 -i 0 -k MAC -R 3000.000000
v -t 121.543533126 -e sim_annotation 121.543533126 63 node 0 receive packet(ACK) 0
r -t 123.989493816 -s 13 -d -1 -p cbr -e 300 -c 2 -a 0 -i 16 -k MAC -R 3000.000000
v -t 123.989493816 -e sim_annotation 123.989493816 64 node 13 receive packet(cbr) 16
+ -t 124.089493816 -s 13 -d -1 -p ACK -e 38 -c 2 -a 0 -i 0 -k MAC 
- -t 124.089493816 -s 13 -d -1 -p ACK -e 38 -c 2 -a 0 -i 0 -k MAC
h -t 124.089493816 -s 13 -d -1 -p ACK -e 38 -c 2 -a 0 -i 0 -k MAC -R 3000.000000
v -t 124.089493816 -e sim_annotation 124.089493816 65 node 13 sendout packet (ACK) 0
r -t 125.026116789 -s 6 -d -1 -p ACK -e 38 -c 2 -a 0 -i 0 -k MAC -R 3000.000000
v -t 125.026116789 -e sim_annotation 125.026116789 66 node 6 receive packet(ACK) 0
+ -t 145.929898238 -s 3 -d -1 -p RTS -e 44 -c 2 -a 0 -i 0 -k MAC 
- -t 145.929898238 -s 3 -d -1 -p RTS -e 44 -c 2 -a 0 -i 0 -k MAC
h -t 145.929898238 -s 3 -d -1 -p RTS -e 44 -c 2 -a 0 -i 0 -k MAC -R 3000.000000
v -t 145.929898238 -e sim_annotation 145.929898238 67 node 3 sendout packet (RTS) 0
r -t 146.893645781 -s 12 -d -1 -p RTS -e 44 -c 2 -a 0 -i 0 -k MAC -R 3000.000000
v -t 146.893645781 -e sim_annotation 146.893645781 68 node 12 receive packet(RTS) 0
+ -t 146.993645781 -s 12 -d -1 -p CTS -e 38 -c 2 -a 0 -i 0 -k MAC 
- -t 146.993645781 -s 12 -d -1 -p CTS -e 38 -c 2 -a 0 -i 0 -k MAC
h -t 146.993645781 -s 12 -d -1 -p CTS -e 38 -c 2 -a 0 -i 0 -k MAC -R 3000.000000
v -t 146.993645781 -e sim_annotation 146.993645781 69 node 12 sendout packet (CTS) 0
r -t 147.908404873 -s 3 -d -1 -p CTS -e 38 -c 2 -a 0 -i 0 -k MAC -R 3000.000000
v -t 147.908404873 -e sim_annotation 147.908404873 70 node 3 receive packet(CTS) 0
+ -t 148.008404873 -s 3 -d -1 -p udp -e 352 -c 2 -a 0 -i 15 -k MAC 
- -t 148.008404873 -s 3 -d -1 -p udp -e 352 -c 2 -a 0 -i 15 -k MAC
h -t 148.008404873 -s 3 -d -1 -p udp -e 352 -c 2 -a 0 -i 15 -k MAC -R 3000.000000
v -t 148.008404873 -e sim_annotation 148.008404873 71 node 3 sendout packet (udp) 15
+ -t 149.926373811 -s 9 -d -1 -p RTS -e 44 -c 2 -a 0 -i 0 -k MAC 
- -t 149.926373811 -s 9 -d -1 -p RTS -e 44 -c 2 -a 0 -i 0 -k MAC
h -t 149.926373811 -s 9 -d -1 -p RTS -e 44 -c 2 -a 0 -i 0 -k MAC -R 3000.000000
v -t 149.926373811 -e sim_annotation 149.926373811 72 node 9 sendout packet (RTS) 0
+ -t 150.732596873 -s 3 -d -1 -p cbr -e 352 -c 2 -a 0 -i 19 -k MAC 
- -t 150.732596873 -s 3 -d -1 -p cbr -e 352 -c 2 -a 0 -i 19 -k MAC
h -t 150.732596873 -s 3 -d -1 -p cbr -e 352 -c 2 -a 0 -i 19 -k MAC -R 3000.000000
v -t 150.732596873 -e sim_annotation 150.732596873 73 node 3 sendout packet (cbr) 19
r -t 150.886421791 -s 13 -d -1 -p RTS -e 44 -c 2 -a 0 -i 0 -k MAC -R 3000.000000
v -t 150.886421791 -e sim_annotation 150.886421791 74 node 13 receive packet(RTS) 0
+ -t 150.986421791 -s 13 -d -1 -p CTS -e 38 -c 2 -a 0 -i 0 -k MAC 
- -t 150.986421791 -s 13 -d -1 -p CTS -e 38 -c 2 -a 0 -i 0 -k MAC
h -t 150.986421791 -s 13 -d -1 -p CTS -e 38 -c 2 -a 0 -i 0 -k MAC -R 3000.000000
v -t 150.986421791 -e sim_annotation 150.986421791 75 node 13 sendout packet (CTS) 0
r -t 151.434223553 -s 12 -d -1 -p udp -e 300 -c 2 -a 0 -i 15 -k MAC -R 3000.000000
v -t 151.434223553 -e sim_annotation 151.434223553 76 node 12 receive packet(udp) 15
r -t 151.897494923 -s 9 -d -1 -p CTS -e 38 -c 2 -a 0 -i 0 -k MAC -R 3000.000000
v -t 151.897494923 -e sim_annotation 151.897494923 77 node 9 receive packet(CTS) 0
+ -t 151.997494923 -s 9 -d -1 -p udp -e 352 -c 2 -a 0 -i 17 -k MAC 
- -t 151.997494923 -s 9 -d -1 -p udp -e 352 -c 2 -a 0 -i 17 -k MAC
h -t 151.997494923 -s 9 -d -1 -p udp -e 352 -c 2 -a 0 -i 17 -k MAC -R 3000.000000
v -t 151.997494923 -e sim_annotation 151.997494923 78 node 9 sendout packet (udp) 17
r -t 154.155903181 -s 12 -d -1 -p cbr -e 300 -c 2 -a 0 -i 19 -k MAC -R 3000.000000
v -t 154.155903181 -e sim_annotation 154.155903181 79 node 12 receive packet(cbr) 19
+ -t 154.255903181 -s 12 -d -1 -p ACK -e 38 -c 2 -a 0 -i 0 -k MAC 
- -t 154.255903181 -s 12 -d -1 -p ACK -e 38 -c 2 -a 0 -i 0 -k MAC
h -t 154.255903181 -s 12 -d -1 -p ACK -e 38 -c 2 -a 0 -i 0 -k MAC -R 3000.000000
v -t 154.255903181 -e sim_annotation 154.255903181 80 node 12 sendout packet (ACK) 0
+ -t 154.721686923 -s 9 -d -1 -p cbr -e 352 -c 2 -a 0 -i 21 -k MAC 
- -t 154.721686923 -s 9 -d -1 -p cbr -e 352 -c 2 -a 0 -i 21 -k MAC
h -t 154.721686923 -s 9 -d -1 -p cbr -e 352 -c 2 -a 0 -i 21 -k MAC -R 3000.000000
v -t 154.721686923 -e sim_annotation 154.721686923 81 node 9 sendout packet (cbr) 21
r -t 155.163986789 -s 3 -d -1 -p ACK -e 38 -c 2 -a 0 -i 0 -k MAC -R 3000.000000
v -t 155.163986789 -e sim_annotation 155.163986789 82 node 3 receive packet(ACK) 0
r -t 155.419640778 -s 13 -d -1 -p udp -e 300 -c 2 -a 0 -i 17 -k MAC -R 3000.000000
v -t 155.419640778 -e sim_annotation 155.419640778 83 node 13 receive packet(udp) 17
r -t 158.141346755 -s 13 -d -1 -p cbr -e 300 -c 2 -a 0 -i 21 -k MAC -R 3000.000000
v -t 158.141346755 -e sim_annotation 158.141346755 84 node 13 receive packet(cbr) 21
+ -t 158.241346755 -s 13 -d -1 -p ACK -e 38 -c 2 -a 0 -i 0 -k MAC 
- -t 158.241346755 -s 13 -d -1 -p ACK -e 38 -c 2 -a 0 -i 0 -k MAC
h -t 158.241346755 -s 13 -d -1 -p ACK -e 38 -c 2 -a 0 -i 0 -k MAC -R 3000.000000
v -t 158.241346755 -e sim_annotation 158.241346755 85 node 13 sendout packet (ACK) 0
r -t 159.145821616 -s 9 -d -1 -p ACK -e 38 -c 2 -a 0 -i 0 -k MAC -R 3000.000000
v -t 159.145821616 -e sim_annotation 159.145821616 86 node 9 receive packet(ACK) 0
+ -t 180.679898238 -s 0 -d -1 -p RTS -e 44 -c 2 -a 0 -i 0 -k MAC 
- -t 180.679898238 -s 0 -d -1 -p RTS -e 44 -c 2 -a 0 -i 0 -k MAC
h -t 180.679898238 -s 0 -d -1 -p RTS -e 44 -c 2 -a 0 -i 0 -k MAC -R 3000.000000
v -t 180.679898238 -e sim_annotation 180.679898238 87 node 0 sendout packet (RTS) 0
r -t 181.612806918 -s 12 -d -1 -p RTS -e 44 -c 2 -a 0 -i 0 -k MAC -R 3000.000000
v -t 181.612806918 -e sim_annotation 181.612806918 88 node 12 receive packet(RTS) 0
+ -t 181.712806918 -s 12 -d -1 -p CTS -e 38 -c 2 -a 0 -i 0 -k MAC 
- -t 181.712806918 -s 12 -d -1 -p CTS -e 38 -c 2 -a 0 -i 0 -k MAC
h -t 181.712806918 -s 12 -d -1 -p CTS -e 38 -c 2 -a 0 -i 0 -k MAC -R 3000.000000
v -t 181.712806918 -e sim_annotation 181.712806918 89 node 12 sendout packet (CTS) 0
r -t 182.596846596 -s 0 -d -1 -p CTS -e 38 -c 2 -a 0 -i 0 -k MAC -R 3000.000000
v -t 182.596846596 -e sim_annotation 182.596846596 90 node 0 receive packet(CTS) 0
+ -t 182.696846596 -s 0 -d -1 -p udp -e 352 -c 2 -a 0 -i 18 -k MAC 
- -t 182.696846596 -s 0 -d -1 -p udp -e 352 -c 2 -a 0 -i 18 -k MAC
h -t 182.696846596 -s 0 -d -1 -p udp -e 352 -c 2 -a 0 -i 18 -k MAC -R 3000.000000
v -t 182.696846596 -e sim_annotation 182.696846596 91 node 0 sendout packet (udp) 18
+ -t 183.176373811 -s 6 -d -1 -p RTS -e 44 -c 2 -a 0 -i 0 -k MAC 
- -t 183.176373811 -s 6 -d -1 -p RTS -e 44 -c 2 -a 0 -i 0 -k MAC
h -t 183.176373811 -s 6 -d -1 -p RTS -e 44 -c 2 -a 0 -i 0 -k MAC -R 3000.000000
v -t 183.176373811 -e sim_annotation 183.176373811 92 node 6 sendout packet (RTS) 0
r -t 184.107187077 -s 13 -d -1 -p RTS -e 44 -c 2 -a 0 -i 0 -k MAC -R 3000.000000
v -t 184.107187077 -e sim_annotation 184.107187077 93 node 13 receive packet(RTS) 0
+ -t 184.207187077 -s 13 -d -1 -p CTS -e 38 -c 2 -a 0 -i 0 -k MAC 
- -t 184.207187077 -s 13 -d -1 -p CTS -e 38 -c 2 -a 0 -i 0 -k MAC
h -t 184.207187077 -s 13 -d -1 -p CTS -e 38 -c 2 -a 0 -i 0 -k MAC -R 3000.000000
v -t 184.207187077 -e sim_annotation 184.207187077 94 node 13 sendout packet (CTS) 0
r -t 185.089140026 -s 6 -d -1 -p CTS -e 38 -c 2 -a 0 -i 0 -k MAC -R 3000.000000
v -t 185.089140026 -e sim_annotation 185.089140026 95 node 6 receive packet(CTS) 0
+ -t 185.189140026 -s 6 -d -1 -p udp -e 352 -c 2 -a 0 -i 20 -k MAC 
- -t 185.189140026 -s 6 -d -1 -p udp -e 352 -c 2 -a 0 -i 20 -k MAC
h -t 185.189140026 -s 6 -d -1 -p udp -e 352 -c 2 -a 0 -i 20 -k MAC -R 3000.000000
v -t 185.189140026 -e sim_annotation 185.189140026 96 node 6 sendout packet (udp) 20
+ -t 185.421038596 -s 0 -d -1 -p cbr -e 352 -c 2 -a 0 -i 22 -k MAC 
- -t 185.421038596 -s 0 -d -1 -p cbr -e 352 -c 2 -a 0 -i 22 -k MAC
h -t 185.421038596 -s 0 -d -1 -p cbr -e 352 -c 2 -a 0 -i 22 -k MAC -R 3000.000000
v -t 185.421038596 -e sim_annotation 185.421038596 97 node 0 sendout packet (cbr) 22
r -t 186.092061052 -s 12 -d -1 -p udp -e 300 -c 2 -a 0 -i 18 -k MAC -R 3000.000000
v -t 186.092061052 -e sim_annotation 186.092061052 98 node 12 receive packet(udp) 18
+ -t 187.913332026 -s 6 -d -1 -p cbr -e 352 -c 2 -a 0 -i 24 -k MAC 
- -t 187.913332026 -s 6 -d -1 -p cbr -e 352 -c 2 -a 0 -i 24 -k MAC
h -t 187.913332026 -s 6 -d -1 -p cbr -e 352 -c 2 -a 0 -i 24 -k MAC -R 3000.000000
v -t 187.913332026 -e sim_annotation 187.913332026 99 node 6 sendout packet (cbr) 24
r -t 188.582276114 -s 13 -d -1 -p udp -e 300 -c 2 -a 0 -i 20 -k MAC -R 3000.000000
v -t 188.582276114 -e sim_annotation 188.582276114 100 node 13 receive packet(udp) 20
r -t 188.813982155 -s 12 -d -1 -p cbr -e 300 -c 2 -a 0 -i 22 -k MAC -R 3000.000000
v -t 188.813982155 -e sim_annotation 188.813982155 101 node 12 receive packet(cbr) 22
+ -t 188.913982155 -s 12 -d -1 -p ACK -e 38 -c 2 -a 0 -i 0 -k MAC 
- -t 188.913982155 -s 12 -d -1 -p ACK -e 38 -c 2 -a 0 -i 0 -k MAC
h -t 188.913982155 -s 12 -d -1 -p ACK -e 38 -c 2 -a 0 -i 0 -k MAC -R 3000.000000
v -t 188.913982155 -e sim_annotation 188.913982155 102 node 12 sendout packet (ACK) 0
r -t 189.792043514 -s 0 -d -1 -p ACK -e 38 -c 2 -a 0 -i 0 -k MAC -R 3000.000000
v -t 189.792043514 -e sim_annotation 189.792043514 103 node 0 receive packet(ACK) 0
r -t 191.304215660 -s 13 -d -1 -p cbr -e 300 -c 2 -a 0 -i 24 -k MAC -R 3000.000000
v -t 191.304215660 -e sim_annotation 191.304215660 104 node 13 receive packet(cbr) 24
+ -t 191.404215660 -s 13 -d -1 -p ACK -e 38 -c 2 -a 0 -i 0 -k MAC 
- -t 191.404215660 -s 13 -d -1 -p ACK -e 38 -c 2 -a 0 -i 0 -k MAC
h -t 191.404215660 -s 13 -d -1 -p ACK -e 38 -c 2 -a 0 -i 0 -k MAC -R 3000.000000
v -t 191.404215660 -e sim_annotation 191.404215660 105 node 13 sendout packet (ACK) 0
r -t 192.280242655 -s 6 -d -1 -p ACK -e 38 -c 2 -a 0 -i 0 -k MAC -R 3000.000000
v -t 192.280242655 -e sim_annotation 192.280242655 106 node 6 receive packet(ACK) 0
+ -t 215.929898238 -s 3 -d -1 -p RTS -e 44 -c 2 -a 0 -i 0 -k MAC 
- -t 215.929898238 -s 3 -d -1 -p RTS -e 44 -c 2 -a 0 -i 0 -k MAC
h -t 215.929898238 -s 3 -d -1 -p RTS -e 44 -c 2 -a 0 -i 0 -k MAC -R 3000.000000
v -t 215.929898238 -e sim_annotation 215.929898238 107 node 3 sendout packet (RTS) 0
r -t 216.834828689 -s 12 -d -1 -p RTS -e 44 -c 2 -a 0 -i 0 -k MAC -R 3000.000000
v -t 216.834828689 -e sim_annotation 216.834828689 108 node 12 receive packet(RTS) 0
+ -t 216.934828689 -s 12 -d -1 -p CTS -e 38 -c 2 -a 0 -i 0 -k MAC 
- -t 216.934828689 -s 12 -d -1 -p CTS -e 38 -c 2 -a 0 -i 0 -k MAC
h -t 216.934828689 -s 12 -d -1 -p CTS -e 38 -c 2 -a 0 -i 0 -k MAC -R 3000.000000
v -t 216.934828689 -e sim_annotation 216.934828689 109 node 12 sendout packet (CTS) 0
r -t 217.791014109 -s 3 -d -1 -p CTS -e 38 -c 2 -a 0 -i 0 -k MAC -R 3000.000000
v -t 217.791014109 -e sim_annotation 217.791014109 110 node 3 receive packet(CTS) 0
+ -t 217.891014109 -s 3 -d -1 -p udp -e 352 -c 2 -a 0 -i 23 -k MAC 
- -t 217.891014109 -s 3 -d -1 -p udp -e 352 -c 2 -a 0 -i 23 -k MAC
h -t 217.891014109 -s 3 -d -1 -p udp -e 352 -c 2 -a 0 -i 23 -k MAC -R 3000.000000
v -t 217.891014109 -e sim_annotation 217.891014109 111 node 3 sendout packet (udp) 23
+ -t 219.926373811 -s 9 -d -1 -p RTS -e 44 -c 2 -a 0 -i 0 -k MAC 
- -t 219.926373811 -s 9 -d -1 -p RTS -e 44 -c 2 -a 0 -i 0 -k MAC
h -t 219.926373811 -s 9 -d -1 -p RTS -e 44 -c 2 -a 0 -i 0 -k MAC -R 3000.000000
v -t 219.926373811 -e sim_annotation 219.926373811 112 node 9 sendout packet (RTS) 0
+ -t 220.615206109 -s 3 -d -1 -p cbr -e 352 -c 2 -a 0 -i 27 -k MAC 
- -t 220.615206109 -s 3 -d -1 -p cbr -e 352 -c 2 -a 0 -i 27 -k MAC
h -t 220.615206109 -s 3 -d -1 -p cbr -e 352 -c 2 -a 0 -i 27 -k MAC -R 3000.000000
v -t 220.615206109 -e sim_annotation 220.615206109 113 node 3 sendout packet (cbr) 27
r -t 220.828359329 -s 13 -d -1 -p RTS -e 44 -c 2 -a 0 -i 0 -k MAC -R 3000.000000
v -t 220.828359329 -e sim_annotation 220.828359329 114 node 13 receive packet(RTS) 0
+ -t 220.928359329 -s 13 -d -1 -p CTS -e 38 -c 2 -a 0 -i 0 -k MAC 
- -t 220.928359329 -s 13 -d -1 -p CTS -e 38 -c 2 -a 0 -i 0 -k MAC
h -t 220.928359329 -s 13 -d -1 -p CTS -e 38 -c 2 -a 0 -i 0 -k MAC -R 3000.000000
v -t 220.928359329 -e sim_annotation 220.928359329 115 node 13 sendout packet (CTS) 0
r -t 221.258493447 -s 12 -d -1 -p udp -e 300 -c 2 -a 0 -i 23 -k MAC -R 3000.000000
v -t 221.258493447 -e sim_annotation 221.258493447 116 node 12 receive packet(udp) 23
r -t 221.781614053 -s 9 -d -1 -p CTS -e 38 -c 2 -a 0 -i 0 -k MAC -R 3000.000000
v -t 221.781614053 -e sim_annotation 221.781614053 117 node 9 receive packet(CTS) 0
+ -t 221.881614053 -s 9 -d -1 -p udp -e 352 -c 2 -a 0 -i 25 -k MAC 
- -t 221.881614053 -s 9 -d -1 -p udp -e 352 -c 2 -a 0 -i 25 -k MAC
h -t 221.881614053 -s 9 -d -1 -p udp -e 352 -c 2 -a 0 -i 25 -k MAC -R 3000.000000
v -t 221.881614053 -e sim_annotation 221.881614053 118 node 9 sendout packet (udp) 25
r -t 223.980688903 -s 12 -d -1 -p cbr -e 300 -c 2 -a 0 -i 27 -k MAC -R 3000.000000
v -t 223.980688903 -e sim_annotation 223.980688903 119 node 12 receive packet(cbr) 27
+ -t 224.080688903 -s 12 -d -1 -p ACK -e 38 -c 2 -a 0 -i 0 -k MAC 
- -t 224.080688903 -s 12 -d -1 -p ACK -e 38 -c 2 -a 0 -i 0 -k MAC
h -t 224.080688903 -s 12 -d -1 -p ACK -e 38 -c 2 -a 0 -i 0 -k MAC -R 3000.000000
v -t 224.080688903 -e sim_annotation 224.080688903 120 node 12 sendout packet (ACK) 0
+ -t 224.605806053 -s 9 -d -1 -p cbr -e 352 -c 2 -a 0 -i 29 -k MAC 
- -t 224.605806053 -s 9 -d -1 -p cbr -e 352 -c 2 -a 0 -i 29 -k MAC