vectorbased
M 0.0 nn 14 x 10000 y 6000 z 0
M 0.0 prop Propagation/UnderwaterPropagation ant Antenna/OmniAntenna
M 15.10000 12 (2000.00, 6000.00, 0.00), (2000.00, 10.00), 2.50
M 15.10000 13 (6000.00, 6000.00, 0.00), (6000.00, 10.00), 2.50
M 15.10000 12 (2000.00, 6000.00, 0.00), (2000.00, 10.00), 2.50
M 15.10000 13 (6000.00, 6000.00, 0.00), (6000.00, 10.00), 2.50
s 16.100025000 _12_ MAC  --- 1 audio 60 [0 ffffffff c 800] [energy 199996.800000 ei 3.200 es 0.000 et 0.000 er 0.000] ------- [3:60 1:0 0 0] 
M 15.10000 12 (2000.00, 6000.00, 0.00), (2000.00, 10.00), 2.50
M 15.10000 13 (6000.00, 6000.00, 0.00), (6000.00, 10.00), 2.50
r 17.329848238 _0_ MAC  --- 1 audio 60 [0 ffffffff c 800] [energy 199996.303477 ei 3.408 es 0.000 et 0.000 er 0.288] ------- [3:60 1:0 0 0] 
r 17.329848238 _3_ MAC  --- 1 audio 60 [0 ffffffff c 800] [energy 199996.303477 ei 3.408 es 0.000 et 0.000 er 0.288] ------- [3:60 1:0 0 0] 
M 15.10000 12 (2000.00, 6000.00, 0.00), (2000.00, 10.00), 2.50
M 15.10000 13 (6000.00, 6000.00, 0.00), (6000.00, 10.00), 2.50
M 15.10000 12 (2000.00, 6000.00, 0.00), (2000.00, 10.00), 2.50
M 15.10000 13 (6000.00, 6000.00, 0.00), (6000.00, 10.00), 2.50
s 19.100025000 _13_ MAC  --- 0 audio 60 [0 ffffffff d 800] [energy 199996.200000 ei 3.800 es 0.000 et 0.000 er 0.000] ------- [3:60 0:0 0 0] 
M 15.10000 12 (2000.00, 6000.00, 0.00), (2000.00, 10.00), 2.50
M 15.10000 13 (6000.00, 6000.00, 0.00), (6000.00, 10.00), 2.50
r 20.326323811 _6_ MAC  --- 0 audio 60 [0 ffffffff d 800] [energy 199995.704182 ei 4.008 es 0.000 et 0.000 er 0.288] ------- [3:60 0:0 0 0] 
r 20.326323811 _9_ MAC  --- 0 audio 60 [0 ffffffff d 800] [energy 199995.704182 ei 4.008 es 0.000 et 0.000 er 0.288] ------- [3:60 0:0 0 0] 
M 15.10000 12 (2000.00, 6000.00, 0.00), (2000.00, 10.00), 2.50
M 15.10000 13 (6000.00, 6000.00, 0.00), (6000.00, 10.00), 2.50
M 15.10000 12 (2000.00, 6000.00, 0.00), (2000.00, 10.00), 2.50
M 15.10000 13 (6000.00, 6000.00, 0.00), (6000.00, 10.00), 2.50
M 15.10000 12 (2000.00, 6000.00, 0.00), (2000.00, 10.00), 2.50
M 15.10000 13 (6000.00, 6000.00, 0.00), (6000.00, 10.00), 2.50
M 15.10000 12 (2000.00, 6000.00, 0.00), (2000.00, 10.00), 2.50
M 15.10000 13 (6000.00, 6000.00, 0.00), (6000.00, 10.00), 2.50
M 15.10000 12 (2000.00, 6000.00, 0.00), (2000.00, 10.00), 2.50
M 15.10000 13 (6000.00, 6000.00, 0.00), (6000.00, 10.00), 2.50
M 15.10000 12 (2000.00, 6000.00, 0.00), (2000.00, 10.00), 2.50
M 15.10000 13 (6000.00, 6000.00, 0.00), (6000.00, 10.00), 2.50
M 15.10000 12 (2000.00, 6000.00, 0.00), (2000.00, 10.00), 2.50
M 15.10000 13 (6000.00, 6000.00, 0.00), (6000.00, 10.00), 2.50
M 15.10000 12 (2000.00, 6000.00, 0.00), (2000.00, 10.00), 2.50
M 15.10000 13 (6000.00, 6000.00, 0.00), (6000.00, 10.00), 2.50
M 15.10000 12 (2000.00, 6000.00, 0.00), (2000.00, 10.00), 2.50
M 15.10000 13 (6000.00, 6000.00, 0.00), (6000.00, 10.00), 2.50
M 15.10000 12 (2000.00, 6000.00, 0.00), (2000.00, 10.00), 2.50
M 15.10000 13 (6000.00, 6000.00, 0.00), (6000.00, 10.00), 2.50
M 15.10000 12 (2000.00, 6000.00, 0.00), (2000.00, 10.00), 2.50
M 15.10000 13 (6000.00, 6000.00, 0.00), (6000.00, 10.00), 2.50
M 15.10000 12 (2000.00, 6000.00, 0.00), (2000.00, 10.00), 2.50
M 15.10000 13 (6000.00, 6000.00, 0.00), (6000.00, 10.00), 2.50
M 15.10000 12 (2000.00, 6000.00, 0.00), (2000.00, 10.00), 2.50
M 15.10000 13 (6000.00, 6000.00, 0.00), (6000.00, 10.00), 2.50
M 15.10000 12 (2000.00, 6000.00, 0.00), (2000.00, 10.00), 2.50
M 15.10000 13 (6000.00, 6000.00, 0.00), (6000.00, 10.00), 2.50
M 15.10000 12 (2000.00, 6000.00, 0.00), (2000.00, 10.00), 2.50
M 15.10000 13 (6000.00, 6000.00, 0.00), (6000.00, 10.00), 2.50
M 15.10000 12 (2000.00, 6000.00, 0.00), (2000.00, 10.00), 2.50
M 15.10000 13 (6000.00, 6000.00, 0.00), (6000.00, 10.00), 2.50
M 15.10000 12 (2000.00, 6000.00, 0.00), (2000.00, 10.00), 2.50
M 15.10000 13 (6000.00, 6000.00, 0.00), (6000.00, 10.00), 2.50
M 15.10000 12 (2000.00, 6000.00, 0.00), (2000.00, 10.00), 2.50
M 15.10000 13 (6000.00, 6000.00, 0.00), (6000.00, 10.00), 2.50
M 15.10000 12 (2000.00, 6000.00, 0.00), (2000.00, 10.00), 2.50
M 15.10000 13 (6000.00, 6000.00, 0.00), (6000.00, 10.00), 2.50
M 15.10000 12 (2000.00, 6000.00, 0.00), (2000.00, 10.00), 2.50
M 15.10000 13 (6000.00, 6000.00, 0.00), (6000.00, 10.00), 2.50
M 15.10000 12 (2000.00, 6000.00, 0.00), (2000.00, 10.00), 2.50
M 15.10000 13 (6000.00, 6000.00, 0.00), (6000.00, 10.00), 2.50
M 15.10000 12 (2000.00, 6000.00, 0.00), (2000.00, 10.00), 2.50
M 15.10000 13 (6000.00, 6000.00, 0.00), (6000.00, 10.00), 2.50
M 15.10000 12 (2000.00, 6000.00, 0.00), (2000.00, 10.00), 2.50
M 15.10000 13 (6000.00, 6000.00, 0.00), (6000.00, 10.00), 2.50
M 15.10000 12 (2000.00, 6000.00, 0.00), (2000.00, 10.00), 2.50
M 15.10000 13 (6000.00, 6000.00, 0.00), (6000.00, 10.00), 2.50
M 15.10000 12 (2000.00, 6000.00, 0.00), (2000.00, 10.00), 2.50
M 15.10000 13 (6000.00, 6000.00, 0.00), (6000.00, 10.00), 2.50
M 15.10000 12 (2000.00, 6000.00, 0.00), (2000.00, 10.00), 2.50
M 15.10000 13 (6000.00, 6000.00, 0.00), (6000.00, 10.00), 2.50
M 15.10000 12 (2000.00, 6000.00, 0.00), (2000.00, 10.00), 2.50
M 15.10000 13 (6000.00, 6000.00, 0.00), (6000.00, 10.00), 2.50
M 15.10000 12 (2000.00, 6000.00, 0.00), (2000.00, 10.00), 2.50
M 15.10000 13 (6000.00, 6000.00, 0.00), (6000.00, 10.00), 2.50
M 15.10000 12 (2000.00, 6000.00, 0.00), (2000.00, 10.00), 2.50
M 15.10000 13 (6000.00, 6000.00, 0.00), (6000.00, 10.00), 2.50
M 15.10000 12 (2000.00, 6000.00, 0.00), (2000.00, 10.00), 2.50
M 15.10000 13 (6000.00, 6000.00, 0.00), (6000.00, 10.00), 2.50
M 15.10000 12 (2000.00, 6000.00, 0.00), (2000.00, 10.00), 2.50
M 15.10000 13 (6000.00, 6000.00, 0.00), (6000.00, 10.00), 2.50
M 15.10000 12 (2000.00, 6000.00, 0.00), (2000.00, 10.00), 2.50
M 15.10000 13 (6000.00, 6000.00, 0.00), (6000.00, 10.00), 2.50
M 15.10000 12 (2000.00, 6000.00, 0.00), (2000.00, 10.00), 2.50
M 15.10000 13 (6000.00, 6000.00, 0.00), (6000.00, 10.00), 2.50
M 15.10000 12 (2000.00, 6000.00, 0.00), (2000.00, 10.00), 2.50
M 15.10000 13 (6000.00, 6000.00, 0.00), (6000.00, 10.00), 2.50
M 15.10000 12 (2000.00, 6000.00, 0.00), (2000.00, 10.00), 2.50
M 15.10000 13 (6000.00, 6000.00, 0.00), (6000.00, 10.00), 2.50
M 15.10000 12 (2000.00, 6000.00, 0.00), (2000.00, 10.00), 2.50
M 15.10000 13 (6000.00, 6000.00, 0.00), (6000.00, 10.00), 2.50
M 15.10000 12 (2000.00, 6000.00, 0.00), (2000.00, 10.00), 2.50
M 15.10000 13 (6000.00, 6000.00, 0.00), (6000.00, 10.00), 2.50
M 15.10000 12 (2000.00, 6000.00, 0.00), (2000.00, 10.00), 2.50
M 15.10000 13 (6000.00, 6000.00, 0.00), (6000.00, 10.00), 2.50
s 58.679898238 _0_ MAC  --- 0 RTS 44 [f0c0 c 0 0] [energy 199988.169446 ei 11.542 es 0.000 et 0.000 er 0.288] 
M 15.10000 12 (2000.00, 6000.00, 0.00), (2000.00, 10.00), 2.50
M 15.10000 13 (6000.00, 6000.00, 0.00), (6000.00, 10.00), 2.50
r 59.733018145 _12_ MAC  --- 0 RTS 44 [f0c0 c 0 0] [energy 199979.337121 ei 11.857 es 0.000 et 8.646 er 0.160] 
s 59.833018145 _12_ MAC  --- 0 CTS 38 [b3e0 0 0 0] [energy 199979.337121 ei 11.857 es 0.000 et 8.646 er 0.160] 
M 15.10000 12 (2000.00, 6000.00, 0.00), (2000.00, 10.00), 2.50
M 15.10000 13 (6000.00, 6000.00, 0.00), (6000.00, 10.00), 2.50
s 60.176373811 _6_ MAC  --- 0 RTS 44 [f0c0 d 6 0] [energy 199987.769446 ei 11.942 es 0.000 et 0.000 er 0.288] 
r 60.836860657 _0_ MAC  --- 0 CTS 38 [b3e0 0 0 0] [energy 199982.738599 ei 12.055 es 0.000 et 4.806 er 0.400] 
s 60.936860657 _0_ MAC  --- 2 udp 352 [3ce0 c 0 800] [energy 199982.738599 ei 12.055 es 0.000 et 4.806 er 0.400] ------- [1:352 2:0 0 0] 
M 15.10000 12 (2000.00, 6000.00, 0.00), (2000.00, 10.00), 2.50
M 15.10000 13 (6000.00, 6000.00, 0.00), (6000.00, 10.00), 2.50
r 61.227836409 _13_ MAC  --- 0 RTS 44 [f0c0 d 6 0] [energy 199979.038158 ei 12.156 es 0.000 et 8.646 er 0.160] 
s 61.327836409 _13_ MAC  --- 0 CTS 38 [b3e0 6 0 0] [energy 199979.038158 ei 12.156 es 0.000 et 8.646 er 0.160] 
M 15.10000 12 (2000.00, 6000.00, 0.00), (2000.00, 10.00), 2.50
M 15.10000 13 (6000.00, 6000.00, 0.00), (6000.00, 10.00), 2.50
r 62.330026449 _6_ MAC  --- 0 CTS 38 [b3e0 6 0 0] [energy 199982.439966 ei 12.354 es 0.000 et 4.806 er 0.400] 
s 62.430026449 _6_ MAC  --- 4 udp 352 [3ce0 d 6 800] [energy 199982.439966 ei 12.354 es 0.000 et 4.806 er 0.400] ------- [1:352 4:0 0 0] 
M 15.10000 12 (2000.00, 6000.00, 0.00), (2000.00, 10.00), 2.50
M 15.10000 13 (6000.00, 6000.00, 0.00), (6000.00, 10.00), 2.50
s 63.661052657 _0_ MAC  --- 6 cbr 352 [3ce0 c 0 800] [energy 199903.992839 ei 12.075 es 0.000 et 83.532 er 0.400] ------- [2:352 6:0 0 0] [352] 0 0
M 15.10000 12 (2000.00, 6000.00, 0.00), (2000.00, 10.00), 2.50
M 15.10000 13 (6000.00, 6000.00, 0.00), (6000.00, 10.00), 2.50
r 64.451482530 _12_ MAC  --- 2 udp 300 [3ce0 c 0 800] [energy 199972.950753 ei 12.253 es 0.000 et 12.012 er 2.784] ------- [1:300 2:0 0 0] 
M 15.10000 12 (2000.00, 6000.00, 0.00), (2000.00, 10.00), 2.50
M 15.10000 13 (6000.00, 6000.00, 0.00), (6000.00, 10.00), 2.50
s 65.154218449 _6_ MAC  --- 8 cbr 352 [3ce0 d 6 800] [energy 199903.694206 ei 12.374 es 0.000 et 83.532 er 0.400] ------- [2:352 8:0 0 0] [352] 0 0
r 65.943000559 _13_ MAC  --- 4 udp 300 [3ce0 d 6 800] [energy 199972.652449 ei 12.552 es 0.000 et 12.012 er 2.784] ------- [1:300 4:0 0 0] 
M 15.10000 12 (2000.00, 6000.00, 0.00), (2000.00, 10.00), 2.50
M 15.10000 13 (6000.00, 6000.00, 0.00), (6000.00, 10.00), 2.50
M 15.10000 12 (2000.00, 6000.00, 0.00), (2000.00, 10.00), 2.50
M 15.10000 13 (6000.00, 6000.00, 0.00), (6000.00, 10.00), 2.50
r 67.172671232 _12_ MAC  --- 6 cbr 300 [3ce0 c 0 800] [energy 199970.307162 ei 12.273 es 0.000 et 12.012 er 5.409] ------- [2:300 6:0 0 0] [300] 1 0
s 67.272671232 _12_ MAC  --- 0 ACK 38 [0 0 0 0] [energy 199970.307162 ei 12.273 es 0.000 et 12.012 er 5.409] 
M 15.10000 12 (2000.00, 6000.00, 0.00), (2000.00, 10.00), 2.50
M 15.10000 13 (6000.00, 6000.00, 0.00), (6000.00, 10.00), 2.50
r 68.268328396 _0_ MAC  --- 0 ACK 38 [0 0 0 0] [energy 199824.760709 ei 12.469 es 0.000 et 162.257 er 0.513] 
r 68.664196431 _13_ MAC  --- 8 cbr 300 [3ce0 d 6 800] [energy 199970.008857 ei 12.571 es 0.000 et 12.012 er 5.409] ------- [2:300 8:0 0 0] [300] 1 0
s 68.764196431 _13_ MAC  --- 0 ACK 38 [0 6 0 0] [energy 199970.008857 ei 12.571 es 0.000 et 12.012 er 5.409] 
M 15.10000 12 (2000.00, 6000.00, 0.00), (2000.00, 10.00), 2.50
M 15.10000 13 (6000.00, 6000.00, 0.00), (6000.00, 10.00), 2.50
r 69.758224408 _6_ MAC  --- 0 ACK 38 [0 6 0 0] [energy 199824.462730 ei 12.767 es 0.000 et 162.257 er 0.513] 
M 15.10000 12 (2000.00, 6000.00, 0.00), (2000.00, 10.00), 2.50
M 15.10000 13 (6000.00, 6000.00, 0.00), (6000.00, 10.00), 2.50
M 15.10000 12 (2000.00, 6000.00, 0.00), (2000.00, 10.00), 2.50
M 15.10000 13 (6000.00, 6000.00, 0.00), (6000.00, 10.00), 2.50
M 15.10000 12 (2000.00, 6000.00, 0.00), (2000.00, 10.00), 2.50
M 15.10000 13 (6000.00, 6000.00, 0.00), (6000.00, 10.00), 2.50
M 15.10000 12 (2000.00, 6000.00, 0.00), (2000.00, 10.00), 2.50
M 15.10000 13 (6000.00, 6000.00, 0.00), (6000.00, 10.00), 2.50
M 15.10000 12 (2000.00, 6000.00, 0.00), (2000.00, 10.00), 2.50
M 15.10000 13 (6000.00, 6000.00, 0.00), (6000.00, 10.00), 2.50
M 15.10000 12 (2000.00, 6000.00, 0.00), (2000.00, 10.00), 2.50
M 15.10000 13 (6000.00, 6000.00, 0.00), (6000.00, 10.00), 2.50
M 15.10000 12 (2000.00, 6000.00, 0.00), (2000.00, 10.00), 2.50
M 15.10000 13 (6000.00, 6000.00, 0.00), (6000.00, 10.00), 2.50
M 15.10000 12 (2000.00, 6000.00, 0.00), (2000.00, 10.00), 2.50
M 15.10000 13 (6000.00, 6000.00, 0.00), (6000.00, 10.00), 2.50
M 15.10000 12 (2000.00, 6000.00, 0.00), (2000.00, 10.00), 2.50
M 15.10000 13 (6000.00, 6000.00, 0.00), (6000.00, 10.00), 2.50
M 15.10000 12 (2000.00, 6000.00, 0.00), (2000.00, 10.00), 2.50
M 15.10000 13 (6000.00, 6000.00, 0.00), (6000.00, 10.00), 2.50
M 15.10000 12 (2000.00, 6000.00, 0.00), (2000.00, 10.00), 2.50
M 15.10000 13 (6000.00, 6000.00, 0.00), (6000.00, 10.00), 2.50
M 15.10000 12 (2000.00, 6000.00, 0.00), (2000.00, 10.00), 2.50
M 15.10000 13 (6000.00, 6000.00, 0.00), (6000.00, 10.00), 2.50
M 15.10000 12 (2000.00, 6000.00, 0.00), (2000.00, 10.00), 2.50
M 15.10000 13 (6000.00, 6000.00, 0.00), (6000.00, 10.00), 2.50
M 15.10000 12 (2000.00, 6000.00, 0.00), (2000.00, 10.00), 2.50
M 15.10000 13 (6000.00, 6000.00, 0.00), (6000.00, 10.00), 2.50
M 15.10000 12 (2000.00, 6000.00, 0.00), (2000.00, 10.00), 2.50
M 15.10000 13 (6000.00, 6000.00, 0.00), (6000.00, 10.00), 2.50
M 15.10000 12 (2000.00, 6000.00, 0.00), (2000.00, 10.00), 2.50
M 15.10000 13 (6000.00, 6000.00, 0.00), (6000.00, 10.00), 2.50
M 15.10000 12 (2000.00, 6000.00, 0.00), (2000.00, 10.00), 2.50
M 15.10000 13 (6000.00, 6000.00, 0.00), (6000.00, 10.00), 2.50
M 15.10000 12 (2000.00, 6000.00, 0.00), (2000.00, 10.00), 2.50
M 15.10000 13 (6000.00, 6000.00, 0.00), (6000.00, 10.00), 2.50
M 15.10000 12 (2000.00, 6000.00, 0.00), (2000.00, 10.00), 2.50
M 15.10000 13 (6000.00, 6000.00, 0.00), (6000.00, 10.00), 2.50
s 88.929898238 _3_ MAC  --- 0 RTS 44 [f0c0 c 3 0] [energy 199976.350146 ei 16.088 es 0.000 et 0.000 er 7.562] 
M 15.10000 12 (2000.00, 6000.00, 0.00), (2000.00, 10.00), 2.50
M 15.10000 13 (6000.00, 6000.00, 0.00), (6000.00, 10.00), 2.50
r 89.950301671 _12_ MAC  --- 0 RTS 44 [f0c0 c 3 0] [energy 199962.280160 ei 16.774 es 0.000 et 15.377 er 5.569] 
M 15.10000 12 (2000.00, 6000.00, 0.00), (2000.00, 10.00), 2.50
M 15.10000 13 (6000.00, 6000.00, 0.00), (6000.00, 10.00), 2.50
s 90.050301671 _12_ MAC  --- 0 CTS 38 [b3e0 3 0 0] [energy 199962.270221 ei 16.784 es 0.000 et 15.377 er 5.569] 
M 15.10000 12 (2000.00, 6000.00, 0.00), (2000.00, 10.00), 2.50
M 15.10000 13 (6000.00, 6000.00, 0.00), (6000.00, 10.00), 2.50
r 91.021526245 _3_ MAC  --- 0 CTS 38 [b3e0 3 0 0] [energy 199970.882365 ei 16.637 es 0.000 et 4.806 er 7.675] 
s 91.121526245 _3_ MAC  --- 7 udp 352 [3ce0 c 3 800] [energy 199970.882365 ei 16.637 es 0.000 et 4.806 er 7.675] ------- [1:352 7:0 0 0] 
M 15.10000 12 (2000.00, 6000.00, 0.00), (2000.00, 10.00), 2.50
M 15.10000 13 (6000.00, 6000.00, 0.00), (6000.00, 10.00), 2.50
M 15.10000 12 (2000.00, 6000.00, 0.00), (2000.00, 10.00), 2.50
M 15.10000 13 (6000.00, 6000.00, 0.00), (6000.00, 10.00), 2.50
s 93.845718245 _3_ MAC  --- 11 cbr 352 [3ce0 c 3 800] [energy 199892.136605 ei 16.657 es 0.000 et 83.532 er 7.675] ------- [2:352 11:0 0 0] [352] 0 0
M 15.10000 12 (2000.00, 6000.00, 0.00), (2000.00, 10.00), 2.50
M 15.10000 13 (6000.00, 6000.00, 0.00), (6000.00, 10.00), 2.50
r 94.603625989 _12_ MAC  --- 7 udp 300 [3ce0 c 3 800] [energy 199955.906820 ei 17.157 es 0.000 et 18.743 er 8.193] ------- [1:300 7:0 0 0] 
M 15.10000 12 (2000.00, 6000.00, 0.00), (2000.00, 10.00), 2.50
M 15.10000 13 (6000.00, 6000.00, 0.00), (6000.00, 10.00), 2.50
M 15.10000 12 (2000.00, 6000.00, 0.00), (2000.00, 10.00), 2.50
M 15.10000 13 (6000.00, 6000.00, 0.00), (6000.00, 10.00), 2.50
M 15.10000 12 (2000.00, 6000.00, 0.00), (2000.00, 10.00), 2.50
M 15.10000 13 (6000.00, 6000.00, 0.00), (6000.00, 10.00), 2.50
r 97.324967607 _12_ MAC  --- 11 cbr 300 [3ce0 c 3 800] [energy 199953.263198 ei 17.177 es 0.000 et 18.743 er 10.817] ------- [2:300 11:0 0 0] [300] 1 0
s 97.424967607 _12_ MAC  --- 0 ACK 38 [0 3 0 0] [energy 199953.263198 ei 17.177 es 0.000 et 18.743 er 10.817] 
M 15.10000 12 (2000.00, 6000.00, 0.00), (2000.00, 10.00), 2.50
M 15.10000 13 (6000.00, 6000.00, 0.00), (6000.00, 10.00), 2.50
r 98.388494223 _3_ MAC  --- 0 ACK 38 [0 3 0 0] [energy 199812.917375 ei 17.039 es 0.000 et 162.257 er 7.787] 
s 98.426373811 _9_ MAC  --- 0 RTS 44 [f0c0 d 9 0] [energy 199975.663078 ei 18.416 es 0.000 et 0.000 er 5.921] 
M 15.10000 12 (2000.00, 6000.00, 0.00), (2000.00, 10.00), 2.50
M 15.10000 13 (6000.00, 6000.00, 0.00), (6000.00, 10.00), 2.50
r 99.436863448 _13_ MAC  --- 0 RTS 44 [f0c0 d 9 0] [energy 199960.382848 ei 18.671 es 0.000 et 15.377 er 5.569] 
s 99.536863448 _13_ MAC  --- 0 CTS 38 [b3e0 9 0 0] [energy 199960.382848 ei 18.671 es 0.000 et 15.377 er 5.569] 
M 15.10000 12 (2000.00, 6000.00, 0.00), (2000.00, 10.00), 2.50
M 15.10000 13 (6000.00, 6000.00, 0.00), (6000.00, 10.00), 2.50
r 100.498205502 _9_ MAC  --- 0 CTS 38 [b3e0 9 0 0] [energy 199970.299962 ei 18.861 es 0.000 et 4.806 er 6.033] 
s 100.598205502 _9_ MAC  --- 5 udp 352 [3ce0 d 9 800] [energy 199970.299962 ei 18.861 es 0.000 et 4.806 er 6.033] ------- [1:352 5:0 0 0] 
M 15.10000 12 (2000.00, 6000.00, 0.00), (2000.00, 10.00), 2.50
M 15.10000 13 (6000.00, 6000.00, 0.00), (6000.00, 10.00), 2.50
M 15.10000 12 (2000.00, 6000.00, 0.00), (2000.00, 10.00), 2.50
M 15.10000 13 (6000.00, 6000.00, 0.00), (6000.00, 10.00), 2.50
M 15.10000 12 (2000.00, 6000.00, 0.00), (2000.00, 10.00), 2.50
M 15.10000 13 (6000.00, 6000.00, 0.00), (6000.00, 10.00), 2.50
s 103.322397502 _9_ MAC  --- 13 cbr 352 [3ce0 d 9 800] [energy 199891.554202 ei 18.881 es 0.000 et 83.532 er 6.033] ------- [2:352 13:0 0 0] [352] 0 0
M 15.10000 12 (2000.00, 6000.00, 0.00), (2000.00, 10.00), 2.50
M 15.10000 13 (6000.00, 6000.00, 0.00), (6000.00, 10.00), 2.50
r 104.070453086 _13_ MAC  --- 5 udp 300 [3ce0 d 9 800] [energy 199954.013455 ei 19.051 es 0.000 et 18.743 er 8.193] ------- [1:300 5:0 0 0] 
M 15.10000 12 (2000.00, 6000.00, 0.00), (2000.00, 10.00), 2.50
M 15.10000 13 (6000.00, 6000.00, 0.00), (6000.00, 10.00), 2.50
M 15.10000 12 (2000.00, 6000.00, 0.00), (2000.00, 10.00), 2.50
M 15.10000 13 (6000.00, 6000.00, 0.00), (6000.00, 10.00), 2.50
r 106.791846323 _13_ MAC  --- 13 cbr 300 [3ce0 d 9 800] [energy 199951.369823 ei 19.070 es 0.000 et 18.743 er 10.817] ------- [2:300 13:0 0 0] [300] 1 0
s 106.891846323 _13_ MAC  --- 0 ACK 38 [0 9 0 0] [energy 199951.369823 ei 19.070 es 0.000 et 18.743 er 10.817] 
M 15.10000 12 (2000.00, 6000.00, 0.00), (2000.00, 10.00), 2.50
M 15.10000 13 (6000.00, 6000.00, 0.00), (6000.00, 10.00), 2.50
r 107.845650971 _9_ MAC  --- 0 ACK 38 [0 9 0 0] [energy 199812.338876 ei 19.258 es 0.000 et 162.257 er 6.146] 
M 15.10000 12 (2000.00, 6000.00, 0.00), (2000.00, 10.00), 2.50
M 15.10000 13 (6000.00, 6000.00, 0.00), (6000.00, 10.00), 2.50
M 15.10000 12 (2000.00, 6000.00, 0.00), (2000.00, 10.00), 2.50
M 15.10000 13 (6000.00, 6000.00, 0.00), (6000.00, 10.00), 2.50
M 15.10000 12 (2000.00, 6000.00, 0.00), (2000.00, 10.00), 2.50
M 15.10000 13 (6000.00, 6000.00, 0.00), (6000.00, 10.00), 2.50
M 15.10000 12 (2000.00, 6000.00, 0.00), (2000.00, 10.00), 2.50
M 15.10000 13 (6000.00, 6000.00, 0.00), (6000.00, 10.00), 2.50
M 15.10000 12 (2000.00, 6000.00, 0.00), (2000.00, 10.00), 2.50
M 15.10000 13 (6000.00, 6000.00, 0.00), (6000.00, 10.00), 2.50
s 112.179898238 _0_ MAC  --- 0 RTS 44 [f0c0 c 0 0] [energy 199811.508006 ei 20.089 es 0.000 et 162.257 er 6.146] 
M 15.10000 12 (2000.00, 6000.00, 0.00), (2000.00, 10.00), 2.50
M 15.10000 13 (6000.00, 6000.00, 0.00), (6000.00, 10.00), 2.50
r 113.176352737 _12_ MAC  --- 0 RTS 44 [f0c0 c 0 0] [energy 199946.621446 ei 20.292 es 0.000 et 22.109 er 10.977] 
s 113.276352737 _12_ MAC  --- 0 CTS 38 [b3e0 0 0 0] [energy 199946.621446 ei 20.292 es 0.000 et 22.109 er 10.977] 
M 15.10000 12 (2000.00, 6000.00, 0.00), (2000.00, 10.00), 2.50
M 15.10000 13 (6000.00, 6000.00, 0.00), (6000.00, 10.00), 2.50
r 114.223705257 _0_ MAC  --- 0 CTS 38 [b3e0 0 0 0] [energy 199806.199790 ei 20.479 es 0.000 et 167.063 er 6.258] 
s 114.323705257 _0_ MAC  --- 10 udp 352 [3ce0 c 0 800] [energy 199806.199790 ei 20.479 es 0.000 et 167.063 er 6.258] ------- [1:352 10:0 0 0] 
M 15.10000 12 (2000.00, 6000.00, 0.00), (2000.00, 10.00), 2.50
M 15.10000 13 (6000.00, 6000.00, 0.00), (6000.00, 10.00), 2.50
s 115.676373811 _6_ MAC  --- 0 RTS 44 [f0c0 d 6 0] [energy 199806.581146 ei 19.607 es 0.000 et 162.257 er 11.554] 
M 15.10000 12 (2000.00, 6000.00, 0.00), (2000.00, 10.00), 2.50
M 15.10000 13 (6000.00, 6000.00, 0.00), (6000.00, 10.00), 2.50
r 116.669323125 _13_ MAC  --- 0 RTS 44 [f0c0 d 6 0] [energy 199945.922852 ei 20.991 es 0.000 et 22.109 er 10.977] 
s 116.769323125 _13_ MAC  --- 0 CTS 38 [b3e0 6 0 0] [energy 199945.922852 ei 20.991 es 0.000 et 22.109 er 10.977] 
M 15.10000 12 (2000.00, 6000.00, 0.00), (2000.00, 10.00), 2.50
M 15.10000 13 (6000.00, 6000.00, 0.00), (6000.00, 10.00), 2.50
s 117.047897257 _0_ MAC  --- 14 cbr 352 [3ce0 c 0 800] [energy 199727.443610 ei 20.510 es 0.000 et 245.789 er 6.258] ------- [2:352 14:0 0 0] [352] 0 0
r 117.713182114 _6_ MAC  --- 0 CTS 38 [b3e0 6 0 0] [energy 199801.175034 ei 20.096 es 0.000 et 167.063 er 11.666] 
r 117.782007528 _12_ MAC  --- 10 udp 300 [3ce0 c 0 800] [energy 199940.257640 ei 20.666 es 0.000 et 25.475 er 13.602] ------- [1:300 10:0 0 0] 
s 117.813182114 _6_ MAC  --- 12 udp 352 [3ce0 d 6 800] [energy 199801.175034 ei 20.096 es 0.000 et 167.063 er 11.666] ------- [1:352 12:0 0 0] 
M 15.10000 12 (2000.00, 6000.00, 0.00), (2000.00, 10.00), 2.50
M 15.10000 13 (6000.00, 6000.00, 0.00), (6000.00, 10.00), 2.50
M 15.10000 12 (2000.00, 6000.00, 0.00), (2000.00, 10.00), 2.50
M 15.10000 13 (6000.00, 6000.00, 0.00), (6000.00, 10.00), 2.50
M 15.10000 12 (2000.00, 6000.00, 0.00), (2000.00, 10.00), 2.50
M 15.10000 13 (6000.00, 6000.00, 0.00), (6000.00, 10.00), 2.50
r 120.503478750 _12_ MAC  --- 14 cbr 300 [3ce0 c 0 800] [energy 199937.613992 ei 20.686 es 0.000 et 25.475 er 16.226] ------- [2:300 14:0 0 0] [300] 1 0
s 120.537374114 _6_ MAC  --- 16 cbr 352 [3ce0 d 6 800] [energy 199722.429274 ei 20.116 es 0.000 et 245.789 er 11.666] ------- [2:352 16:0 0 0] [352] 0 0
s 120.603478750 _12_ MAC  --- 0 ACK 38 [0 0 0 0] [energy 199937.613992 ei 20.686 es 0.000 et 25.475 er 16.226] 
M 15.10000 12 (2000.00, 6000.00, 0.00), (2000.00, 10.00), 2.50
M 15.10000 13 (6000.00, 6000.00, 0.00), (6000.00, 10.00), 2.50
r 121.268002143 _13_ MAC  --- 12 udp 300 [3ce0 d 6 800] [energy 199939.560441 ei 21.363 es 0.000 et 25.475 er 13.602] ------- [1:300 12:0 0 0] 
r 121.543533126 _0_ MAC  --- 0 ACK 38 [0 0 0 0] [energy 199648.244228 ei 20.871 es 0.000 et 324.515 er 6.370] 
M 15.10000 12 (2000.00, 6000.00, 0.00), (2000.00, 10.00), 2.50
M 15.10000 13 (6000.00, 6000.00, 0.00), (6000.00, 10.00), 2.50
M 15.10000 12 (2000.00, 6000.00, 0.00), (2000.00, 10.00), 2.50
M 15.10000 13 (6000.00, 6000.00, 0.00), (6000.00, 10.00), 2.50
r 123.989493816 _13_ MAC  --- 16 cbr 300 [3ce0 d 6 800] [energy 199936.916789 ei 21.383 es 0.000 et 25.475 er 16.226] ------- [2:300 16:0 0 0] [300] 1 0
M 15.10000 12 (2000.00, 6000.00, 0.00), (2000.00, 10.00), 2.50
M 15.10000 13 (6000.00, 6000.00, 0.00), (6000.00, 10.00), 2.50
s 124.089493816 _13_ MAC  --- 0 ACK 38 [0 6 0 0] [energy 199936.914688 ei 21.385 es 0.000 et 25.475 er 16.226] 
M 15.10000 12 (2000.00, 6000.00, 0.00), (2000.00, 10.00), 2.50
M 15.10000 13 (6000.00, 6000.00, 0.00), (6000.00, 10.00), 2.50
r 125.026116789 _6_ MAC  --- 0 ACK 38 [0 6 0 0] [energy 199643.220850 ei 20.486 es 0.000 et 324.515 er 11.778] 
M 15.10000 12 (2000.00, 6000.00, 0.00), (2000.00, 10.00), 2.50
M 15.10000 13 (6000.00, 6000.00, 0.00), (6000.00, 10.00), 2.50
M 15.10000 12 (2000.00, 6000.00, 0.00), (2000.00, 10.00), 2.50
M 15.10000 13 (6000.00, 6000.00, 0.00), (6000.00, 10.00), 2.50
M 15.10000 12 (2000.00, 6000.00, 0.00), (2000.00, 10.00), 2.50
M 15.10000 13 (6000.00, 6000.00, 0.00), (6000.00, 10.00), 2.50
M 15.10000 12 (2000.00, 6000.00, 0.00), (2000.00, 10.00), 2.50
M 15.10000 13 (6000.00, 6000.00, 0.00), (6000.00, 10.00), 2.50
M 15.10000 12 (2000.00, 6000.00, 0.00), (2000.00, 10.00), 2.50
M 15.10000 13 (6000.00, 6000.00, 0.00), (6000.00, 10.00), 2.50
M 15.10000 12 (2000.00, 6000.00, 0.00), (2000.00, 10.00), 2.50
M 15.10000 13 (6000.00, 6000.00, 0.00), (6000.00, 10.00), 2.50
M 15.10000 12 (2000.00, 6000.00, 0.00), (2000.00, 10.00), 2.50
M 15.10000 13 (6000.00, 6000.00, 0.00), (6000.00, 10.00), 2.50
M 15.10000 12 (2000.00, 6000.00, 0.00), (2000.00, 10.00), 2.50
M 15.10000 13 (6000.00, 6000.00, 0.00), (6000.00, 10.00), 2.50
M 15.10000 12 (2000.00, 6000.00, 0.00), (2000.00, 10.00), 2.50
M 15.10000 13 (6000.00, 6000.00, 0.00), (6000.00, 10.00), 2.50
M 15.10000 12 (2000.00, 6000.00, 0.00), (2000.00, 10.00), 2.50
M 15.10000 13 (6000.00, 6000.00, 0.00), (6000.00, 10.00), 2.50
M 15.10000 12 (2000.00, 6000.00, 0.00), (2000.00, 10.00), 2.50
M 15.10000 13 (6000.00, 6000.00, 0.00), (6000.00, 10.00), 2.50
M 15.10000 12 (2000.00, 6000.00, 0.00), (2000.00, 10.00), 2.50
M 15.10000 13 (6000.00, 6000.00, 0.00), (6000.00, 10.00), 2.50
M 15.10000 12 (2000.00, 6000.00, 0.00), (2000.00, 10.00), 2.50
M 15.10000 13 (6000.00, 6000.00, 0.00), (6000.00, 10.00), 2.50
M 15.10000 12 (2000.00, 6000.00, 0.00), (2000.00, 10.00), 2.50
M 15.10000 13 (6000.00, 6000.00, 0.00), (6000.00, 10.00), 2.50
M 15.10000 12 (2000.00, 6000.00, 0.00), (2000.00, 10.00), 2.50
M 15.10000 13 (6000.00, 6000.00, 0.00), (6000.00, 10.00), 2.50
M 15.10000 12 (2000.00, 6000.00, 0.00), (2000.00, 10.00), 2.50
M 15.10000 13 (6000.00, 6000.00, 0.00), (6000.00, 10.00), 2.50
M 15.10000 12 (2000.00, 6000.00, 0.00), (2000.00, 10.00), 2.50
M 15.10000 13 (6000.00, 6000.00, 0.00), (6000.00, 10.00), 2.50
M 15.10000 12 (2000.00, 6000.00, 0.00), (2000.00, 10.00), 2.50
M 15.10000 13 (6000.00, 6000.00, 0.00), (6000.00, 10.00), 2.50
M 15.10000 12 (2000.00, 6000.00, 0.00), (2000.00, 10.00), 2.50
M 15.10000 13 (6000.00, 6000.00, 0.00), (6000.00, 10.00), 2.50
M 15.10000 12 (2000.00, 6000.00, 0.00), (2000.00, 10.00), 2.50
M 15.10000 13 (6000.00, 6000.00, 0.00), (6000.00, 10.00), 2.50
s 145.929898238 _3_ MAC  --- 0 RTS 44 [f0c0 c 3 0] [energy 199796.466878 ei 24.579 es 0.000 et 162.257 er 16.697] 
M 15.10000 12 (2000.00, 6000.00, 0.00), (2000.00, 10.00), 2.50
M 15.10000 13 (6000.00, 6000.00, 0.00), (6000.00, 10.00), 2.50
r 146.893645781 _12_ MAC  --- 0 RTS 44 [f0c0 c 3 0] [energy 199928.864484 ei 25.909 es 0.000 et 28.840 er 16.386] 
s 146.993645781 _12_ MAC  --- 0 CTS 38 [b3e0 3 0 0] [energy 199928.864484 ei 25.909 es 0.000 et 28.840 er 16.386] 
M 15.10000 12 (2000.00, 6000.00, 0.00), (2000.00, 10.00), 2.50
M 15.10000 13 (6000.00, 6000.00, 0.00), (6000.00, 10.00), 2.50
r 147.908404873 _3_ MAC  --- 0 CTS 38 [b3e0 3 0 0] [energy 199791.021722 ei 25.106 es 0.000 et 167.063 er 16.809] 
M 15.10000 12 (2000.00, 6000.00, 0.00), (2000.00, 10.00), 2.50
M 15.10000 13 (6000.00, 6000.00, 0.00), (6000.00, 10.00), 2.50
s 148.008404873 _3_ MAC  --- 15 udp 352 [3ce0 c 3 800] [energy 199791.003403 ei 25.124 es 0.000 et 167.063 er 16.809] ------- [1:352 15:0 0 0] 
M 15.10000 12 (2000.00, 6000.00, 0.00), (2000.00, 10.00), 2.50
M 15.10000 13 (6000.00, 6000.00, 0.00), (6000.00, 10.00), 2.50
s 149.926373811 _9_ MAC  --- 0 RTS 44 [f0c0 d 9 0] [energy 199799.601638 ei 26.363 es 0.000 et 162.257 er 11.778] 
M 15.10000 12 (2000.00, 6000.00, 0.00), (2000.00, 10.00), 2.50
M 15.10000 13 (6000.00, 6000.00, 0.00), (6000.00, 10.00), 2.50
s 150.732596873 _3_ MAC  --- 19 cbr 352 [3ce0 c 3 800] [energy 199712.275962 ei 25.126 es 0.000 et 245.789 er 16.809] ------- [2:352 19:0 0 0] [352] 0 0
r 150.886421791 _13_ MAC  --- 0 RTS 44 [f0c0 d 9 0] [energy 199928.065928 ei 26.708 es 0.000 et 28.840 er 16.386] 
s 150.986421791 _13_ MAC  --- 0 CTS 38 [b3e0 9 0 0] [energy 199928.065928 ei 26.708 es 0.000 et 28.840 er 16.386] 
M 15.10000 12 (2000.00, 6000.00, 0.00), (2000.00, 10.00), 2.50
M 15.10000 13 (6000.00, 6000.00, 0.00), (6000.00, 10.00), 2.50
r 151.434223553 _12_ MAC  --- 15 udp 300 [3ce0 c 3 800] [energy 199922.513693 ei 26.270 es 0.000 et 32.206 er 19.010] ------- [1:300 15:0 0 0] 
r 151.897494923 _9_ MAC  --- 0 CTS 38 [b3e0 9 0 0] [energy 199794.158664 ei 26.888 es 0.000 et 167.063 er 11.891] 
s 151.997494923 _9_ MAC  --- 17 udp 352 [3ce0 d 9 800] [energy 199794.158664 ei 26.888 es 0.000 et 167.063 er 11.891] ------- [1:352 17:0 0 0] 
M 15.10000 12 (2000.00, 6000.00, 0.00), (2000.00, 10.00), 2.50
M 15.10000 13 (6000.00, 6000.00, 0.00), (6000.00, 10.00), 2.50
M 15.10000 12 (2000.00, 6000.00, 0.00), (2000.00, 10.00), 2.50
M 15.10000 13 (6000.00, 6000.00, 0.00), (6000.00, 10.00), 2.50
M 15.10000 12 (2000.00, 6000.00, 0.00), (2000.00, 10.00), 2.50
M 15.10000 13 (6000.00, 6000.00, 0.00), (6000.00, 10.00), 2.50
r 154.155903181 _12_ MAC  --- 19 cbr 300 [3ce0 c 3 800] [energy 199919.870003 ei 26.290 es 0.000 et 32.206 er 21.634] ------- [2:300 19:0 0 0] [300] 1 0
s 154.255903181 _12_ MAC  --- 0 ACK 38 [0 3 0 0] [energy 199919.870003 ei 26.290 es 0.000 et 32.206 er 21.634] 
s 154.721686923 _9_ MAC  --- 21 cbr 352 [3ce0 d 9 800] [energy 199715.412904 ei 26.908 es 0.000 et 245.789 er 11.891] ------- [2:352 21:0 0 0] [352] 0 0
M 15.10000 12 (2000.00, 6000.00, 0.00), (2000.00, 10.00), 2.50
M 15.10000 13 (6000.00, 6000.00, 0.00), (6000.00, 10.00), 2.50
r 155.163986789 _3_ MAC  --- 0 ACK 38 [0 3 0 0] [energy 199633.079009 ei 25.485 es 0.000 et 324.515 er 16.921] 
r 155.419640778 _13_ MAC  --- 17 udp 300 [3ce0 d 9 800] [energy 199921.716609 ei 27.067 es 0.000 et 32.206 er 19.010] ------- [1:300 17:0 0 0] 
M 15.10000 12 (2000.00, 6000.00, 0.00), (2000.00, 10.00), 2.50
M 15.10000 13 (6000.00, 6000.00, 0.00), (6000.00, 10.00), 2.50
M 15.10000 12 (2000.00, 6000.00, 0.00), (2000.00, 10.00), 2.50
M 15.10000 13 (6000.00, 6000.00, 0.00), (6000.00, 10.00), 2.50
M 15.10000 12 (2000.00, 6000.00, 0.00), (2000.00, 10.00), 2.50
M 15.10000 13 (6000.00, 6000.00, 0.00), (6000.00, 10.00), 2.50
r 158.141346755 _13_ MAC  --- 21 cbr 300 [3ce0 d 9 800] [energy 199919.072915 ei 27.087 es 0.000 et 32.206 er 21.634] ------- [2:300 21:0 0 0] [300] 1 0
s 158.241346755 _13_ MAC  --- 0 ACK 38 [0 9 0 0] [energy 199919.072915 ei 27.087 es 0.000 et 32.206 er 21.634] 
M 15.10000 12 (2000.00, 6000.00, 0.00), (2000.00, 10.00), 2.50
M 15.10000 13 (6000.00, 6000.00, 0.00), (6000.00, 10.00), 2.50
r 159.145821616 _9_ MAC  --- 0 ACK 38 [0 9 0 0] [energy 199636.217402 ei 27.265 es 0.000 et 324.515 er 12.003] 
M 15.10000 12 (2000.00, 6000.00, 0.00), (2000.00, 10.00), 2.50
M 15.10000 13 (6000.00, 6000.00, 0.00), (6000.00, 10.00), 2.50
M 15.10000 12 (2000.00, 6000.00, 0.00), (2000.00, 10.00), 2.50
M 15.10000 13 (6000.00, 6000.00, 0.00), (6000.00, 10.00), 2.50
M 15.10000 12 (2000.00, 6000.00, 0.00), (2000.00, 10.00), 2.50
M 15.10000 13 (6000.00, 6000.00, 0.00), (6000.00, 10.00), 2.50
M 15.10000 12 (2000.00, 6000.00, 0.00), (2000.00, 10.00), 2.50
M 15.10000 13 (6000.00, 6000.00, 0.00), (6000.00, 10.00), 2.50
M 15.10000 12 (2000.00, 6000.00, 0.00), (2000.00, 10.00), 2.50
M 15.10000 13 (6000.00, 6000.00, 0.00), (6000.00, 10.00), 2.50