n -t * -s 0  -x 1000 -y 5000 -Z 0 -z 1000  -v circle -c green
n -t * -s 1  -x 1000 -y 3000 -Z 0 -z 1000  -v circle -c green
n -t * -s 2  -x 1000 -y 1000 -Z 0 -z 1000  -v circle -c green
n -t * -s 3  -x 3000 -y 5000 -Z 0 -z 1000  -v circle -c green
n -t * -s 4  -x 3000 -y 3000 -Z 0 -z 1000  -v circle -c green
n -t * -s 5  -x 3000 -y 1000 -Z 0 -z 1000  -v circle -c green
n -t * -s 6  -x 5000 -y 5000 -Z 0 -z 1000  -v circle -c green
n -t * -s 7  -x 5000 -y 3000 -Z 0 -z 1000  -v circle -c green
n -t * -s 8  -x 5000 -y 1000 -Z 0 -z 1000  -v circle -c green
n -t * -s 9  -x 7000 -y 5000 -Z 0 -z 1000  -v circle -c green
n -t * -s 10  -x 7000 -y 3000 -Z 0 -z 1000  -v circle -c green
n -t * -s 11  -x 7000 -y 1000 -Z 0 -z 1000  -v circle -c green
n -t * -s 12  -x 1700 -y 6000 -Z 0 -z 1000  -v circle -c green
n -t * -s 13  -x 4700 -y 6000 -Z 0 -z 1000  -v circle -c green
V -t * -v 1.0a5 -a 0
W -t * -x 10000 -y 6000
A -t * -n 1 -p 0 -o 0xffffffff -c 31 -a 1
A -t * -h 1 -m 2147483647 -s 0
n -t 15.100000 -s 12 -x 1700.000000 -y 6000.000000 -U 0.000000 -V -2.500000 -T 2396.000000
n -t 15.100000 -s 13 -x 4700.000000 -y 6000.000000 -U 0.000000 -V -2.500000 -T 2396.000000
+ -t 25.834503772 -s 3 -d -1 -p vectorbasedforward -e 309 -c 2 -a 0 -i 1 -k MAC 
- -t 25.834503772 -s 3 -d -1 -p vectorbasedforward -e 309 -c 2 -a 0 -i 1 -k MAC
n -t 25.834503772 -s 3 -S COLOR -c red -o yellow
h -t 25.834503772 -s 3 -d -1 -p vectorbasedforward -e 309 -c 2 -a 0 -i 1 -k MAC -R 3000.000000
v -t 25.834503772 -e sim_annotation 25.834503772 1 node 3 sendout packet (vectorbasedforward) 1
n -t 29.389103044 -s 12 -S COLOR -c red -o yellow
r -t 29.389103044 -s 12 -d -1 -p vectorbasedforward -e 300 -c 2 -a 0 -i 1 -k MAC -R 3000.000000
v -t 29.389103044 -e sim_annotation 29.389103044 2 node 12 receive packet(vectorbasedforward) 1
n -t 29.612396002 -s 13 -S COLOR -c red -o yellow
r -t 29.612396002 -s 13 -d -1 -p vectorbasedforward -e 300 -c 2 -a 0 -i 1 -k MAC -R 3000.000000
v -t 29.612396002 -e sim_annotation 29.612396002 3 node 13 receive packet(vectorbasedforward) 1
n -t 29.639837105 -s 0 -S COLOR -c red -o yellow
r -t 29.639837105 -s 0 -d -1 -p vectorbasedforward -e 300 -c 2 -a 0 -i 1 -k MAC -R 3000.000000
v -t 29.639837105 -e sim_annotation 29.639837105 4 node 0 receive packet(vectorbasedforward) 1
n -t 29.639837105 -s 4 -S COLOR -c red -o yellow
r -t 29.639837105 -s 4 -d -1 -p vectorbasedforward -e 300 -c 2 -a 0 -i 1 -k MAC -R 3000.000000
v -t 29.639837105 -e sim_annotation 29.639837105 5 node 4 receive packet(vectorbasedforward) 1
n -t 29.639837105 -s 6 -S COLOR -c red -o yellow
r -t 29.639837105 -s 6 -d -1 -p vectorbasedforward -e 300 -c 2 -a 0 -i 1 -k MAC -R 3000.000000
v -t 29.639837105 -e sim_annotation 29.639837105 6 node 6 receive packet(vectorbasedforward) 1
n -t 30.192121855 -s 1 -S COLOR -c red -o yellow
r -t 30.192121855 -s 1 -d -1 -p vectorbasedforward -e 300 -c 2 -a 0 -i 1 -k MAC -R 3000.000000
v -t 30.192121855 -e sim_annotation 30.192121855 7 node 1 receive packet(vectorbasedforward) 1
n -t 30.192121855 -s 7 -S COLOR -c red -o yellow
r -t 30.192121855 -s 7 -d -1 -p vectorbasedforward -e 300 -c 2 -a 0 -i 1 -k MAC -R 3000.000000
v -t 30.192121855 -e sim_annotation 30.192121855 8 node 7 receive packet(vectorbasedforward) 1
+ -t 33.409944472 -s 6 -d -1 -p vectorbasedforward -e 309 -c 2 -a 0 -i 2 -k MAC 
- -t 33.409944472 -s 6 -d -1 -p vectorbasedforward -e 309 -c 2 -a 0 -i 2 -k MAC
n -t 33.409944472 -s 6 -S COLOR -c red -o yellow
h -t 33.409944472 -s 6 -d -1 -p vectorbasedforward -e 309 -c 2 -a 0 -i 2 -k MAC -R 3000.000000
v -t 33.409944472 -e sim_annotation 33.409944472 9 node 6 sendout packet (vectorbasedforward) 2
r -t 36.548792986 -s 13 -d -1 -p vectorbasedforward -e 300 -c 2 -a 0 -i 2 -k MAC -R 3000.000000
v -t 36.548792986 -e sim_annotation 36.548792986 10 node 13 receive packet(vectorbasedforward) 2
n -t 37.215277806 -s 3 -S COLOR -c red -o yellow
r -t 37.215277806 -s 3 -d -1 -p vectorbasedforward -e 300 -c 2 -a 0 -i 2 -k MAC -R 3000.000000
v -t 37.215277806 -e sim_annotation 37.215277806 11 node 3 receive packet(vectorbasedforward) 2
r -t 37.215277806 -s 7 -d -1 -p vectorbasedforward -e 300 -c 2 -a 0 -i 2 -k MAC -R 3000.000000
v -t 37.215277806 -e sim_annotation 37.215277806 12 node 7 receive packet(vectorbasedforward) 2
n -t 37.215277806 -s 9 -S COLOR -c red -o yellow
r -t 37.215277806 -s 9 -d -1 -p vectorbasedforward -e 300 -c 2 -a 0 -i 2 -k MAC -R 3000.000000
v -t 37.215277806 -e sim_annotation 37.215277806 13 node 9 receive packet(vectorbasedforward) 2
r -t 37.767562556 -s 4 -d -1 -p vectorbasedforward -e 300 -c 2 -a 0 -i 2 -k MAC -R 3000.000000
v -t 37.767562556 -e sim_annotation 37.767562556 14 node 4 receive packet(vectorbasedforward) 2
n -t 37.767562556 -s 10 -S COLOR -c red -o yellow
r -t 37.767562556 -s 10 -d -1 -p vectorbasedforward -e 300 -c 2 -a 0 -i 2 -k MAC -R 3000.000000
v -t 37.767562556 -e sim_annotation 37.767562556 15 node 10 receive packet(vectorbasedforward) 2
+ -t 38.442036254 -s 4 -d -1 -p vectorbasedforward -e 309 -c 2 -a 0 -i 2 -k MAC 
- -t 38.442036254 -s 4 -d -1 -p vectorbasedforward -e 309 -c 2 -a 0 -i 2 -k MAC
n -t 38.442036254 -s 4 -S COLOR -c red -o yellow
h -t 38.442036254 -s 4 -d -1 -p vectorbasedforward -e 309 -c 2 -a 0 -i 2 -k MAC -R 3000.000000
v -t 38.442036254 -e sim_annotation 38.442036254 16 node 4 sendout packet (vectorbasedforward) 2
+ -t 39.000025000 -s 9 -d -1 -p vectorbasedforward -e 309 -c 2 -a 0 -i 3 -k MAC 
- -t 39.000025000 -s 9 -d -1 -p vectorbasedforward -e 309 -c 2 -a 0 -i 3 -k MAC
n -t 39.000025000 -s 9 -S COLOR -c red -o yellow
h -t 39.000025000 -s 9 -d -1 -p vectorbasedforward -e 309 -c 2 -a 0 -i 3 -k MAC -R 3000.000000
v -t 39.000025000 -e sim_annotation 39.000025000 17 node 9 sendout packet (vectorbasedforward) 3
r -t 42.247369588 -s 3 -d -1 -p vectorbasedforward -e 300 -c 2 -a 0 -i 2 -k MAC -R 3000.000000
v -t 42.247369588 -e sim_annotation 42.247369588 18 node 3 receive packet(vectorbasedforward) 2
r -t 42.247369588 -s 1 -d -1 -p vectorbasedforward -e 300 -c 2 -a 0 -i 2 -k MAC -R 3000.000000
v -t 42.247369588 -e sim_annotation 42.247369588 19 node 1 receive packet(vectorbasedforward) 2
n -t 42.247369588 -s 5 -S COLOR -c red -o yellow
r -t 42.247369588 -s 5 -d -1 -p vectorbasedforward -e 300 -c 2 -a 0 -i 2 -k MAC -R 3000.000000
v -t 42.247369588 -e sim_annotation 42.247369588 20 node 5 receive packet(vectorbasedforward) 2
n -t 42.799654337 -s 2 -S COLOR -c red -o yellow
r -t 42.799654337 -s 2 -d -1 -p vectorbasedforward -e 300 -c 2 -a 0 -i 2 -k MAC -R 3000.000000
v -t 42.799654337 -e sim_annotation 42.799654337 21 node 2 receive packet(vectorbasedforward) 2
r -t 42.799654337 -s 0 -d -1 -p vectorbasedforward -e 300 -c 2 -a 0 -i 2 -k MAC -R 3000.000000
v -t 42.799654337 -e sim_annotation 42.799654337 22 node 0 receive packet(vectorbasedforward) 2
n -t 42.799654337 -s 8 -S COLOR -c red -o yellow
r -t 42.799654337 -s 8 -d -1 -p vectorbasedforward -e 300 -c 2 -a 0 -i 2 -k MAC -R 3000.000000
v -t 42.799654337 -e sim_annotation 42.799654337 23 node 8 receive packet(vectorbasedforward) 2
r -t 42.805358333 -s 10 -d -1 -p vectorbasedforward -e 300 -c 2 -a 0 -i 3 -k MAC -R 3000.000000
v -t 42.805358333 -e sim_annotation 42.805358333 24 node 10 receive packet(vectorbasedforward) 3
r -t 43.128536722 -s 13 -d -1 -p vectorbasedforward -e 300 -c 2 -a 0 -i 3 -k MAC -R 3000.000000
v -t 43.128536722 -e sim_annotation 43.128536722 25 node 13 receive packet(vectorbasedforward) 3
+ -t 50.469711154 -s 0 -d -1 -p vectorbasedforward -e 309 -c 2 -a 0 -i 4 -k MAC 
- -t 50.469711154 -s 0 -d -1 -p vectorbasedforward -e 309 -c 2 -a 0 -i 4 -k MAC
n -t 50.469711154 -s 0 -S COLOR -c red -o yellow
h -t 50.469711154 -s 0 -d -1 -p vectorbasedforward -e 309 -c 2 -a 0 -i 4 -k MAC -R 3000.000000
v -t 50.469711154 -e sim_annotation 50.469711154 26 node 0 sendout packet (vectorbasedforward) 4
r -t 53.707934300 -s 12 -d -1 -p vectorbasedforward -e 300 -c 2 -a 0 -i 4 -k MAC -R 3000.000000
v -t 53.707934300 -e sim_annotation 53.707934300 27 node 12 receive packet(vectorbasedforward) 4
r -t 54.275044487 -s 1 -d -1 -p vectorbasedforward -e 300 -c 2 -a 0 -i 4 -k MAC -R 3000.000000
v -t 54.275044487 -e sim_annotation 54.275044487 28 node 1 receive packet(vectorbasedforward) 4
r -t 54.275044487 -s 3 -d -1 -p vectorbasedforward -e 300 -c 2 -a 0 -i 4 -k MAC -R 3000.000000
v -t 54.275044487 -e sim_annotation 54.275044487 29 node 3 receive packet(vectorbasedforward) 4
r -t 54.827329237 -s 4 -d -1 -p vectorbasedforward -e 300 -c 2 -a 0 -i 4 -k MAC -R 3000.000000
v -t 54.827329237 -e sim_annotation 54.827329237 30 node 4 receive packet(vectorbasedforward) 4
+ -t 58.108833398 -s 3 -d -1 -p vectorbasedforward -e 309 -c 2 -a 0 -i 5 -k MAC 
- -t 58.108833398 -s 3 -d -1 -p vectorbasedforward -e 309 -c 2 -a 0 -i 5 -k MAC
h -t 58.108833398 -s 3 -d -1 -p vectorbasedforward -e 309 -c 2 -a 0 -i 5 -k MAC -R 3000.000000
v -t 58.108833398 -e sim_annotation 58.108833398 31 node 3 sendout packet (vectorbasedforward) 5
r -t 61.632079607 -s 12 -d -1 -p vectorbasedforward -e 300 -c 2 -a 0 -i 5 -k MAC -R 3000.000000
v -t 61.632079607 -e sim_annotation 61.632079607 32 node 12 receive packet(vectorbasedforward) 5
r -t 61.860853681 -s 13 -d -1 -p vectorbasedforward -e 300 -c 2 -a 0 -i 5 -k MAC -R 3000.000000
v -t 61.860853681 -e sim_annotation 61.860853681 33 node 13 receive packet(vectorbasedforward) 5
r -t 61.914166731 -s 0 -d -1 -p vectorbasedforward -e 300 -c 2 -a 0 -i 5 -k MAC -R 3000.000000
v -t 61.914166731 -e sim_annotation 61.914166731 34 node 0 receive packet(vectorbasedforward) 5
r -t 61.914166731 -s 4 -d -1 -p vectorbasedforward -e 300 -c 2 -a 0 -i 5 -k MAC -R 3000.000000
v -t 61.914166731 -e sim_annotation 61.914166731 35 node 4 receive packet(vectorbasedforward) 5
r -t 61.914166731 -s 6 -d -1 -p vectorbasedforward -e 300 -c 2 -a 0 -i 5 -k MAC -R 3000.000000
v -t 61.914166731 -e sim_annotation 61.914166731 36 node 6 receive packet(vectorbasedforward) 5
r -t 62.466451481 -s 1 -d -1 -p vectorbasedforward -e 300 -c 2 -a 0 -i 5 -k MAC -R 3000.000000
v -t 62.466451481 -e sim_annotation 62.466451481 37 node 1 receive packet(vectorbasedforward) 5
r -t 62.466451481 -s 7 -d -1 -p vectorbasedforward -e 300 -c 2 -a 0 -i 5 -k MAC -R 3000.000000
v -t 62.466451481 -e sim_annotation 62.466451481 38 node 7 receive packet(vectorbasedforward) 5
+ -t 71.635099680 -s 9 -d -1 -p vectorbasedforward -e 309 -c 2 -a 0 -i 7 -k MAC 
- -t 71.635099680 -s 9 -d -1 -p vectorbasedforward -e 309 -c 2 -a 0 -i 7 -k MAC
h -t 71.635099680 -s 9 -d -1 -p vectorbasedforward -e 309 -c 2 -a 0 -i 7 -k MAC -R 3000.000000
v -t 71.635099680 -e sim_annotation 71.635099680 39 node 9 sendout packet (vectorbasedforward) 7
r -t 75.440433014 -s 6 -d -1 -p vectorbasedforward -e 300 -c 2 -a 0 -i 7 -k MAC -R 3000.000000
v -t 75.440433014 -e sim_annotation 75.440433014 40 node 6 receive packet(vectorbasedforward) 7
r -t 75.440433014 -s 10 -d -1 -p vectorbasedforward -e 300 -c 2 -a 0 -i 7 -k MAC -R 3000.000000
v -t 75.440433014 -e sim_annotation 75.440433014 41 node 10 receive packet(vectorbasedforward) 7
r -t 75.743803802 -s 13 -d -1 -p vectorbasedforward -e 300 -c 2 -a 0 -i 7 -k MAC -R 3000.000000
v -t 75.743803802 -e sim_annotation 75.743803802 42 node 13 receive packet(vectorbasedforward) 7
r -t 75.992717764 -s 7 -d -1 -p vectorbasedforward -e 300 -c 2 -a 0 -i 7 -k MAC -R 3000.000000
v -t 75.992717764 -e sim_annotation 75.992717764 43 node 7 receive packet(vectorbasedforward) 7
+ -t 81.607362415 -s 0 -d -1 -p vectorbasedforward -e 309 -c 2 -a 0 -i 8 -k MAC 
- -t 81.607362415 -s 0 -d -1 -p vectorbasedforward -e 309 -c 2 -a 0 -i 8 -k MAC
h -t 81.607362415 -s 0 -d -1 -p vectorbasedforward -e 309 -c 2 -a 0 -i 8 -k MAC -R 3000.000000
v -t 81.607362415 -e sim_annotation 81.607362415 44 node 0 sendout packet (vectorbasedforward) 8
r -t 84.805113634 -s 12 -d -1 -p vectorbasedforward -e 300 -c 2 -a 0 -i 8 -k MAC -R 3000.000000
v -t 84.805113634 -e sim_annotation 84.805113634 45 node 12 receive packet(vectorbasedforward) 8
r -t 85.412695748 -s 1 -d -1 -p vectorbasedforward -e 300 -c 2 -a 0 -i 8 -k MAC -R 3000.000000
v -t 85.412695748 -e sim_annotation 85.412695748 46 node 1 receive packet(vectorbasedforward) 8
r -t 85.412695748 -s 3 -d -1 -p vectorbasedforward -e 300 -c 2 -a 0 -i 8 -k MAC -R 3000.000000
v -t 85.412695748 -e sim_annotation 85.412695748 47 node 3 receive packet(vectorbasedforward) 8
r -t 85.964980498 -s 4 -d -1 -p vectorbasedforward -e 300 -c 2 -a 0 -i 8 -k MAC -R 3000.000000
v -t 85.964980498 -e sim_annotation 85.964980498 48 node 4 receive packet(vectorbasedforward) 8
+ -t 87.701736794 -s 3 -d -1 -p vectorbasedforward -e 309 -c 2 -a 0 -i 9 -k MAC 
- -t 87.701736794 -s 3 -d -1 -p vectorbasedforward -e 309 -c 2 -a 0 -i 9 -k MAC
h -t 87.701736794 -s 3 -d -1 -p vectorbasedforward -e 309 -c 2 -a 0 -i 9 -k MAC -R 3000.000000
v -t 87.701736794 -e sim_annotation 87.701736794 49 node 3 sendout packet (vectorbasedforward) 9
r -t 91.197875487 -s 12 -d -1 -p vectorbasedforward -e 300 -c 2 -a 0 -i 9 -k MAC -R 3000.000000
v -t 91.197875487 -e sim_annotation 91.197875487 50 node 12 receive packet(vectorbasedforward) 9
r -t 91.431589486 -s 13 -d -1 -p vectorbasedforward -e 300 -c 2 -a 0 -i 9 -k MAC -R 3000.000000
v -t 91.431589486 -e sim_annotation 91.431589486 51 node 13 receive packet(vectorbasedforward) 9
r -t 91.507070127 -s 0 -d -1 -p vectorbasedforward -e 300 -c 2 -a 0 -i 9 -k MAC -R 3000.000000
v -t 91.507070127 -e sim_annotation 91.507070127 52 node 0 receive packet(vectorbasedforward) 9
r -t 91.507070127 -s 4 -d -1 -p vectorbasedforward -e 300 -c 2 -a 0 -i 9 -k MAC -R 3000.000000
v -t 91.507070127 -e sim_annotation 91.507070127 53 node 4 receive packet(vectorbasedforward) 9
r -t 91.507070127 -s 6 -d -1 -p vectorbasedforward -e 300 -c 2 -a 0 -i 9 -k MAC -R 3000.000000
v -t 91.507070127 -e sim_annotation 91.507070127 54 node 6 receive packet(vectorbasedforward) 9
r -t 92.059354877 -s 1 -d -1 -p vectorbasedforward -e 300 -c 2 -a 0 -i 9 -k MAC -R 3000.000000
v -t 92.059354877 -e sim_annotation 92.059354877 55 node 1 receive packet(vectorbasedforward) 9
r -t 92.059354877 -s 7 -d -1 -p vectorbasedforward -e 300 -c 2 -a 0 -i 9 -k MAC -R 3000.000000
v -t 92.059354877 -e sim_annotation 92.059354877 56 node 7 receive packet(vectorbasedforward) 9
+ -t 95.033931526 -s 6 -d -1 -p vectorbasedforward -e 309 -c 2 -a 0 -i 10 -k MAC 
- -t 95.033931526 -s 6 -d -1 -p vectorbasedforward -e 309 -c 2 -a 0 -i 10 -k MAC
h -t 95.033931526 -s 6 -d -1 -p vectorbasedforward -e 309 -c 2 -a 0 -i 10 -k MAC -R 3000.000000
v -t 95.033931526 -e sim_annotation 95.033931526 57 node 6 sendout packet (vectorbasedforward) 10
r -t 98.075634880 -s 13 -d -1 -p vectorbasedforward -e 300 -c 2 -a 0 -i 10 -k MAC -R 3000.000000
v -t 98.075634880 -e sim_annotation 98.075634880 58 node 13 receive packet(vectorbasedforward) 10
r -t 98.839264860 -s 3 -d -1 -p vectorbasedforward -e 300 -c 2 -a 0 -i 10 -k MAC -R 3000.000000
v -t 98.839264860 -e sim_annotation 98.839264860 59 node 3 receive packet(vectorbasedforward) 10
r -t 98.839264860 -s 7 -d -1 -p vectorbasedforward -e 300 -c 2 -a 0 -i 10 -k MAC -R 3000.000000
v -t 98.839264860 -e sim_annotation 98.839264860 60 node 7 receive packet(vectorbasedforward) 10
r -t 98.839264860 -s 9 -d -1 -p vectorbasedforward -e 300 -c 2 -a 0 -i 10 -k MAC -R 3000.000000
v -t 98.839264860 -e sim_annotation 98.839264860 61 node 9 receive packet(vectorbasedforward) 10
r -t 99.391549609 -s 4 -d -1 -p vectorbasedforward -e 300 -c 2 -a 0 -i 10 -k MAC -R 3000.000000
v -t 99.391549609 -e sim_annotation 99.391549609 62 node 4 receive packet(vectorbasedforward) 10
r -t 99.391549609 -s 10 -d -1 -p vectorbasedforward -e 300 -c 2 -a 0 -i 10 -k MAC -R 3000.000000
v -t 99.391549609 -e sim_annotation 99.391549609 63 node 10 receive packet(vectorbasedforward) 10
+ -t 101.500025000 -s 9 -d -1 -p vectorbasedforward -e 309 -c 2 -a 0 -i 11 -k MAC 
- -t 101.500025000 -s 9 -d -1 -p vectorbasedforward -e 309 -c 2 -a 0 -i 11 -k MAC
h -t 101.500025000 -s 9 -d -1 -p vectorbasedforward -e 309 -c 2 -a 0 -i 11 -k MAC -R 3000.000000
v -t 101.500025000 -e sim_annotation 101.500025000 64 node 9 sendout packet (vectorbasedforward) 11
+ -t 102.313805114 -s 4 -d -1 -p vectorbasedforward -e 309 -c 2 -a 0 -i 10 -k MAC 
- -t 102.313805114 -s 4 -d -1 -p vectorbasedforward -e 309 -c 2 -a 0 -i 10 -k MAC
h -t 102.313805114 -s 4 -d -1 -p vectorbasedforward -e 309 -c 2 -a 0 -i 10 -k MAC -R 3000.000000
v -t 102.313805114 -e sim_annotation 102.313805114 65 node 4 sendout packet (vectorbasedforward) 10
r -t 105.305358333 -s 10 -d -1 -p vectorbasedforward -e 300 -c 2 -a 0 -i 11 -k MAC -R 3000.000000
v -t 105.305358333 -e sim_annotation 105.305358333 66 node 10 receive packet(vectorbasedforward) 11
r -t 105.591991516 -s 13 -d -1 -p vectorbasedforward -e 300 -c 2 -a 0 -i 11 -k MAC -R 3000.000000
v -t 105.591991516 -e sim_annotation 105.591991516 67 node 13 receive packet(vectorbasedforward) 11
r -t 106.119138447 -s 3 -d -1 -p vectorbasedforward -e 300 -c 2 -a 0 -i 10 -k MAC -R 3000.000000
v -t 106.119138447 -e sim_annotation 106.119138447 68 node 3 receive packet(vectorbasedforward) 10
r -t 106.119138447 -s 1 -d -1 -p vectorbasedforward -e 300 -c 2 -a 0 -i 10 -k MAC -R 3000.000000
v -t 106.119138447 -e sim_annotation 106.119138447 69 node 1 receive packet(vectorbasedforward) 10
r -t 106.119138447 -s 5 -d -1 -p vectorbasedforward -e 300 -c 2 -a 0 -i 10 -k MAC -R 3000.000000
v -t 106.119138447 -e sim_annotation 106.119138447 70 node 5 receive packet(vectorbasedforward) 10
r -t 106.671423197 -s 2 -d -1 -p vectorbasedforward -e 300 -c 2 -a 0 -i 10 -k MAC -R 3000.000000
v -t 106.671423197 -e sim_annotation 106.671423197 71 node 2 receive packet(vectorbasedforward) 10
r -t 106.671423197 -s 0 -d -1 -p vectorbasedforward -e 300 -c 2 -a 0 -i 10 -k MAC -R 3000.000000
v -t 106.671423197 -e sim_annotation 106.671423197 72 node 0 receive packet(vectorbasedforward) 10
r -t 106.671423197 -s 8 -d -1 -p vectorbasedforward -e 300 -c 2 -a 0 -i 10 -k MAC -R 3000.000000
v -t 106.671423197 -e sim_annotation 106.671423197 73 node 8 receive packet(vectorbasedforward) 10
+ -t 107.483362093 -s 2 -d -1 -p vectorbasedforward -e 309 -c 2 -a 0 -i 10 -k MAC 
- -t 107.483362093 -s 2 -d -1 -p vectorbasedforward -e 309 -c 2 -a 0 -i 10 -k MAC
n -t 107.483362093 -s 2 -S COLOR -c red -o yellow
h -t 107.483362093 -s 2 -d -1 -p vectorbasedforward -e 309 -c 2 -a 0 -i 10 -k MAC -R 3000.000000
v -t 107.483362093 -e sim_annotation 107.483362093 74 node 2 sendout packet (vectorbasedforward) 10
r -t 111.288695427 -s 1 -d -1 -p vectorbasedforward -e 300 -c 2 -a 0 -i 10 -k MAC -R 3000.000000
v -t 111.288695427 -e sim_annotation 111.288695427 75 node 1 receive packet(vectorbasedforward) 10
r -t 111.288695427 -s 5 -d -1 -p vectorbasedforward -e 300 -c 2 -a 0 -i 10 -k MAC -R 3000.000000
v -t 111.288695427 -e sim_annotation 111.288695427 76 node 5 receive packet(vectorbasedforward) 10
r -t 111.840980176 -s 4 -d -1 -p vectorbasedforward -e 300 -c 2 -a 0 -i 10 -k MAC -R 3000.000000
v -t 111.840980176 -e sim_annotation 111.840980176 77 node 4 receive packet(vectorbasedforward) 10
+ -t 114.012649389 -s 0 -d -1 -p vectorbasedforward -e 309 -c 2 -a 0 -i 12 -k MAC 
- -t 114.012649389 -s 0 -d -1 -p vectorbasedforward -e 309 -c 2 -a 0 -i 12 -k MAC
h -t 114.012649389 -s 0 -d -1 -p vectorbasedforward -e 309 -c 2 -a 0 -i 12 -k MAC -R 3000.000000
v -t 114.012649389 -e sim_annotation 114.012649389 78 node 0 sendout packet (vectorbasedforward) 12
r -t 117.169918178 -s 12 -d -1 -p vectorbasedforward -e 300 -c 2 -a 0 -i 12 -k MAC -R 3000.000000
v -t 117.169918178 -e sim_annotation 117.169918178 79 node 12 receive packet(vectorbasedforward) 12
r -t 117.817982723 -s 1 -d -1 -p vectorbasedforward -e 300 -c 2 -a 0 -i 12 -k MAC -R 3000.000000
v -t 117.817982723 -e sim_annotation 117.817982723 80 node 1 receive packet(vectorbasedforward) 12
r -t 117.817982723 -s 3 -d -1 -p vectorbasedforward -e 300 -c 2 -a 0 -i 12 -k MAC -R 3000.000000
v -t 117.817982723 -e sim_annotation 117.817982723 81 node 3 receive packet(vectorbasedforward) 12
r -t 118.370267473 -s 4 -d -1 -p vectorbasedforward -e 300 -c 2 -a 0 -i 12 -k MAC -R 3000.000000
v -t 118.370267473 -e sim_annotation 118.370267473 82 node 4 receive packet(vectorbasedforward) 12
+ -t 123.660250059 -s 3 -d -1 -p vectorbasedforward -e 309 -c 2 -a 0 -i 13 -k MAC 
- -t 123.660250059 -s 3 -d -1 -p vectorbasedforward -e 309 -c 2 -a 0 -i 13 -k MAC
h -t 123.660250059 -s 3 -d -1 -p vectorbasedforward -e 309 -c 2 -a 0 -i 13 -k MAC -R 3000.000000
v -t 123.660250059 -e sim_annotation 123.660250059 83 node 3 sendout packet (vectorbasedforward) 13
r -t 127.125752741 -s 12 -d -1 -p vectorbasedforward -e 300 -c 2 -a 0 -i 13 -k MAC -R 3000.000000
v -t 127.125752741 -e sim_annotation 127.125752741 84 node 12 receive packet(vectorbasedforward) 13
r -t 127.365287330 -s 13 -d -1 -p vectorbasedforward -e 300 -c 2 -a 0 -i 13 -k MAC -R 3000.000000
v -t 127.365287330 -e sim_annotation 127.365287330 85 node 13 receive packet(vectorbasedforward) 13
r -t 127.465583393 -s 0 -d -1 -p vectorbasedforward -e 300 -c 2 -a 0 -i 13 -k MAC -R 3000.000000
v -t 127.465583393 -e sim_annotation 127.465583393 86 node 0 receive packet(vectorbasedforward) 13
r -t 127.465583393 -s 4 -d -1 -p vectorbasedforward -e 300 -c 2 -a 0 -i 13 -k MAC -R 3000.000000
v -t 127.465583393 -e sim_annotation 127.465583393 87 node 4 receive packet(vectorbasedforward) 13
r -t 127.465583393 -s 6 -d -1 -p vectorbasedforward -e 300 -c 2 -a 0 -i 13 -k MAC -R 3000.000000
v -t 127.465583393 -e sim_annotation 127.465583393 88 node 6 receive packet(vectorbasedforward) 13
r -t 128.017868143 -s 1 -d -1 -p vectorbasedforward -e 300 -c 2 -a 0 -i 13 -k MAC -R 3000.000000
v -t 128.017868143 -e sim_annotation 128.017868143 89 node 1 receive packet(vectorbasedforward) 13
r -t 128.017868143 -s 7 -d -1 -p vectorbasedforward -e 300 -c 2 -a 0 -i 13 -k MAC -R 3000.000000
v -t 128.017868143 -e sim_annotation 128.017868143 90 node 7 receive packet(vectorbasedforward) 13
+ -t 128.356026186 -s 6 -d -1 -p vectorbasedforward -e 309 -c 2 -a 0 -i 14 -k MAC 
- -t 128.356026186 -s 6 -d -1 -p vectorbasedforward -e 309 -c 2 -a 0 -i 14 -k MAC
h -t 128.356026186 -s 6 -d -1 -p vectorbasedforward -e 309 -c 2 -a 0 -i 14 -k MAC -R 3000.000000
v -t 128.356026186 -e sim_annotation 128.356026186 91 node 6 sendout packet (vectorbasedforward) 14
r -t 131.346094464 -s 13 -d -1 -p vectorbasedforward -e 300 -c 2 -a 0 -i 14 -k MAC -R 3000.000000
v -t 131.346094464 -e sim_annotation 131.346094464 92 node 13 receive packet(vectorbasedforward) 14
r -t 132.161359520 -s 3 -d -1 -p vectorbasedforward -e 300 -c 2 -a 0 -i 14 -k MAC -R 3000.000000
v -t 132.161359520 -e sim_annotation 132.161359520 93 node 3 receive packet(vectorbasedforward) 14
r -t 132.161359520 -s 7 -d -1 -p vectorbasedforward -e 300 -c 2 -a 0 -i 14 -k MAC -R 3000.000000
v -t 132.161359520 -e sim_annotation 132.161359520 94 node 7 receive packet(vectorbasedforward) 14
r -t 132.161359520 -s 9 -d -1 -p vectorbasedforward -e 300 -c 2 -a 0 -i 14 -k MAC -R 3000.000000
v -t 132.161359520 -e sim_annotation 132.161359520 95 node 9 receive packet(vectorbasedforward) 14
r -t 132.713644269 -s 4 -d -1 -p vectorbasedforward -e 300 -c 2 -a 0 -i 14 -k MAC -R 3000.000000
v -t 132.713644269 -e sim_annotation 132.713644269 96 node 4 receive packet(vectorbasedforward) 14
r -t 132.713644269 -s 10 -d -1 -p vectorbasedforward -e 300 -c 2 -a 0 -i 14 -k MAC -R 3000.000000
v -t 132.713644269 -e sim_annotation 132.713644269 97 node 10 receive packet(vectorbasedforward) 14
+ -t 132.750025000 -s 9 -d -1 -p vectorbasedforward -e 309 -c 2 -a 0 -i 15 -k MAC 
- -t 132.750025000 -s 9 -d -1 -p vectorbasedforward -e 309 -c 2 -a 0 -i 15 -k MAC
h -t 132.750025000 -s 9 -d -1 -p vectorbasedforward -e 309 -c 2 -a 0 -i 15 -k MAC -R 3000.000000
v -t 132.750025000 -e sim_annotation 132.750025000 98 node 9 sendout packet (vectorbasedforward) 15
+ -t 135.869523863 -s 4 -d -1 -p vectorbasedforward -e 309 -c 2 -a 0 -i 14 -k MAC 
- -t 135.869523863 -s 4 -d -1 -p vectorbasedforward -e 309 -c 2 -a 0 -i 14 -k MAC
h -t 135.869523863 -s 4 -d -1 -p vectorbasedforward -e 309 -c 2 -a 0 -i 14 -k MAC -R 3000.000000
v -t 135.869523863 -e sim_annotation 135.869523863 99 node 4 sendout packet (vectorbasedforward) 14
r -t 136.555358333 -s 6 -d -1 -p vectorbasedforward -e 300 -c 2 -a 0 -i 15 -k MAC -R 3000.000000
v -t 136.555358333 -e sim_annotation 136.555358333 100 node 6 receive packet(vectorbasedforward) 15
r -t 136.555358333 -s 10 -d -1 -p vectorbasedforward -e 300 -c 2 -a 0 -i 15 -k MAC -R 3000.000000
v -t 136.555358333 -e sim_annotation 136.555358333 101 node 10 receive packet(vectorbasedforward) 15
r -t 136.825945118 -s 13 -d -1 -p vectorbasedforward -e 300 -c 2 -a 0 -i 15 -k MAC -R 3000.000000
v -t 136.825945118 -e sim_annotation 136.825945118 102 node 13 receive packet(vectorbasedforward) 15
r -t 137.107643083 -s 7 -d -1 -p vectorbasedforward -e 300 -c 2 -a 0 -i 15 -k MAC -R 3000.000000
v -t 137.107643083 -e sim_annotation 137.107643083 103 node 7 receive packet(vectorbasedforward) 15
r -t 139.674857196 -s 3 -d -1 -p vectorbasedforward -e 300 -c 2 -a 0 -i 14 -k MAC -R 3000.000000
v -t 139.674857196 -e sim_annotation 139.674857196 104 node 3 receive packet(vectorbasedforward) 14
r -t 139.674857196 -s 1 -d -1 -p vectorbasedforward -e 300 -c 2 -a 0 -i 14 -k MAC -R 3000.000000
v -t 139.674857196 -e sim_annotation 139.674857196 105 node 1 receive packet(vectorbasedforward) 14
r -t 139.674857196 -s 5 -d -1 -p vectorbasedforward -e 300 -c 2 -a 0 -i 14 -k MAC -R 3000.000000
v -t 139.674857196 -e sim_annotation 139.674857196 106 node 5 receive packet(vectorbasedforward) 14
r -t 139.674857196 -s 7 -d -1 -p vectorbasedforward -e 300 -c 2 -a 0 -i 14 -k MAC -R 3000.000000
v -t 139.674857196 -e sim_annotation 139.674857196 107 node 7 receive packet(vectorbasedforward) 14
r -t 140.227141946 -s 2 -d -1 -p vectorbasedforward -e 300 -c 2 -a 0 -i 14 -k MAC -R 3000.000000
v -t 140.227141946 -e sim_annotation 140.227141946 108 node 2 receive packet(vectorbasedforward) 14
r -t 140.227141946 -s 0 -d -1 -p vectorbasedforward -e 300 -c 2 -a 0 -i 14 -k MAC -R 3000.000000
v -t 140.227141946 -e sim_annotation 140.227141946 109 node 0 receive packet(vectorbasedforward) 14
r -t 140.227141946 -s 6 -d -1 -p vectorbasedforward -e 300 -c 2 -a 0 -i 14 -k MAC -R 3000.000000
v -t 140.227141946 -e sim_annotation 140.227141946 110 node 6 receive packet(vectorbasedforward) 14
r -t 140.227141946 -s 8 -d -1 -p vectorbasedforward -e 300 -c 2 -a 0 -i 14 -k MAC -R 3000.000000
v -t 140.227141946 -e sim_annotation 140.227141946 111 node 8 receive packet(vectorbasedforward) 14
+ -t 141.039080843 -s 2 -d -1 -p vectorbasedforward -e 309 -c 2 -a 0 -i 14 -k MAC 
- -t 141.039080843 -s 2 -d -1 -p vectorbasedforward -e 309 -c 2 -a 0 -i 14 -k MAC
h -t 141.039080843 -s 2 -d -1 -p vectorbasedforward -e 309 -c 2 -a 0 -i 14 -k MAC -R 3000.000000
v -t 141.039080843 -e sim_annotation 141.039080843 112 node 2 sendout packet (vectorbasedforward) 14
+ -t 144.000025000 -s 0 -d -1 -p vectorbasedforward -e 309 -c 2 -a 0 -i 16 -k MAC 
- -t 144.000025000 -s 0 -d -1 -p vectorbasedforward -e 309 -c 2 -a 0 -i 16 -k MAC
h -t 144.000025000 -s 0 -d -1 -p vectorbasedforward -e 309 -c 2 -a 0 -i 16 -k MAC -R 3000.000000
v -t 144.000025000 -e sim_annotation 144.000025000 113 node 0 sendout packet (vectorbasedforward) 16
r -t 144.844414176 -s 1 -d -1 -p vectorbasedforward -e 300 -c 2 -a 0 -i 14 -k MAC -R 3000.000000
v -t 144.844414176 -e sim_annotation 144.844414176 114 node 1 receive packet(vectorbasedforward) 14
r -t 144.844414176 -s 5 -d -1 -p vectorbasedforward -e 300 -c 2 -a 0 -i 14 -k MAC -R 3000.000000
v -t 144.844414176 -e sim_annotation 144.844414176 115 node 5 receive packet(vectorbasedforward) 14
r -t 145.396698926 -s 4 -d -1 -p vectorbasedforward -e 300 -c 2 -a 0 -i 14 -k MAC -R 3000.000000
v -t 145.396698926 -e sim_annotation 145.396698926 116 node 4 receive packet(vectorbasedforward) 14
r -t 147.121587238 -s 12 -d -1 -p vectorbasedforward -e 300 -c 2 -a 0 -i 16 -k MAC -R 3000.000000
v -t 147.121587238 -e sim_annotation 147.121587238 117 node 12 receive packet(vectorbasedforward) 16
r -t 147.805358333 -s 1 -d -1 -p vectorbasedforward -e 300 -c 2 -a 0 -i 16 -k MAC -R 3000.000000
v -t 147.805358333 -e sim_annotation 147.805358333 118 node 1 receive packet(vectorbasedforward) 16
r -t 147.805358333 -s 3 -d -1 -p vectorbasedforward -e 300 -c 2 -a 0 -i 16 -k MAC -R 3000.000000
v -t 147.805358333 -e sim_annotation 147.805358333 119 node 3 receive packet(vectorbasedforward) 16
r -t 148.357643083 -s 4 -d -1 -p vectorbasedforward -e 300 -c 2 -a 0 -i 16 -k MAC -R 3000.000000
v -t 148.357643083 -e sim_annotation 148.357643083 120 node 4 receive packet(vectorbasedforward) 16
+ -t 150.591794226 -s 3 -d -1 -p vectorbasedforward -e 309 -c 2 -a 0 -i 17 -k MAC 
- -t 150.591794226 -s 3 -d -1 -p vectorbasedforward -e 309 -c 2 -a 0 -i 17 -k MAC
h -t 150.591794226 -s 3 -d -1 -p vectorbasedforward -e 309 -c 2 -a 0 -i 17 -k MAC -R 3000.000000
v -t 150.591794226 -e sim_annotation 150.591794226 121 node 3 sendout packet (vectorbasedforward) 17
r -t 154.036140459 -s 12 -d -1 -p vectorbasedforward -e 300 -c 2 -a 0 -i 17 -k MAC -R 3000.000000
v -t 154.036140459 -e sim_annotation 154.036140459 122 node 12 receive packet(vectorbasedforward) 17
r -t 154.279849541 -s 13 -d -1 -p vectorbasedforward -e 300 -c 2 -a 0 -i 17 -k MAC -R 3000.000000
v -t 154.279849541 -e sim_annotation 154.279849541 123 node 13 receive packet(vectorbasedforward) 17
r -t 154.397127559 -s 0 -d -1 -p vectorbasedforward -e 300 -c 2 -a 0 -i 17 -k MAC -R 3000.000000
v -t 154.397127559 -e sim_annotation 154.397127559 124 node 0 receive packet(vectorbasedforward) 17
r -t 154.397127559 -s 4 -d -1 -p vectorbasedforward -e 300 -c 2 -a 0 -i 17 -k MAC -R 3000.000000
v -t 154.397127559 -e sim_annotation 154.397127559 125 node 4 receive packet(vectorbasedforward) 17
r -t 154.397127559 -s 6 -d -1 -p vectorbasedforward -e 300 -c 2 -a 0 -i 17 -k MAC -R 3000.000000