vectorbased
M 0.0 nn 14 x 10000 y 6000 z 0
M 0.0 prop Propagation/UnderwaterPropagation ant Antenna/OmniAntenna
M 15.10000 12 (1700.00, 6000.00, 0.00), (1700.00, 10.00), 2.50
M 15.10000 13 (4700.00, 6000.00, 0.00), (4700.00, 10.00), 2.50
M 15.10000 12 (1700.00, 6000.00, 0.00), (1700.00, 10.00), 2.50
M 15.10000 13 (4700.00, 6000.00, 0.00), (4700.00, 10.00), 2.50
M 15.10000 12 (1700.00, 6000.00, 0.00), (1700.00, 10.00), 2.50
M 15.10000 13 (4700.00, 6000.00, 0.00), (4700.00, 10.00), 2.50
M 15.10000 12 (1700.00, 6000.00, 0.00), (1700.00, 10.00), 2.50
M 15.10000 13 (4700.00, 6000.00, 0.00), (4700.00, 10.00), 2.50
M 15.10000 12 (1700.00, 6000.00, 0.00), (1700.00, 10.00), 2.50
M 15.10000 13 (4700.00, 6000.00, 0.00), (4700.00, 10.00), 2.50
M 15.10000 12 (1700.00, 6000.00, 0.00), (1700.00, 10.00), 2.50
M 15.10000 13 (4700.00, 6000.00, 0.00), (4700.00, 10.00), 2.50
M 15.10000 12 (1700.00, 6000.00, 0.00), (1700.00, 10.00), 2.50
M 15.10000 13 (4700.00, 6000.00, 0.00), (4700.00, 10.00), 2.50
M 15.10000 12 (1700.00, 6000.00, 0.00), (1700.00, 10.00), 2.50
M 15.10000 13 (4700.00, 6000.00, 0.00), (4700.00, 10.00), 2.50
M 15.10000 12 (1700.00, 6000.00, 0.00), (1700.00, 10.00), 2.50
M 15.10000 13 (4700.00, 6000.00, 0.00), (4700.00, 10.00), 2.50
M 15.10000 12 (1700.00, 6000.00, 0.00), (1700.00, 10.00), 2.50
M 15.10000 13 (4700.00, 6000.00, 0.00), (4700.00, 10.00), 2.50
M 15.10000 12 (1700.00, 6000.00, 0.00), (1700.00, 10.00), 2.50
M 15.10000 13 (4700.00, 6000.00, 0.00), (4700.00, 10.00), 2.50
s 25.834503772 _3_ MAC  --- 1 vectorbasedforward 309 [0 3000000 ffff0008 0] [energy 199995.000000 ei 5.000 es 0.000 et 0.000 er 0.000] ------- [60:309 1:0 0 0] 
M 15.10000 12 (1700.00, 6000.00, 0.00), (1700.00, 10.00), 2.50
M 15.10000 13 (4700.00, 6000.00, 0.00), (4700.00, 10.00), 2.50
M 15.10000 12 (1700.00, 6000.00, 0.00), (1700.00, 10.00), 2.50
M 15.10000 13 (4700.00, 6000.00, 0.00), (4700.00, 10.00), 2.50
M 15.10000 12 (1700.00, 6000.00, 0.00), (1700.00, 10.00), 2.50
M 15.10000 13 (4700.00, 6000.00, 0.00), (4700.00, 10.00), 2.50
M 15.10000 12 (1700.00, 6000.00, 0.00), (1700.00, 10.00), 2.50
M 15.10000 13 (4700.00, 6000.00, 0.00), (4700.00, 10.00), 2.50
r 29.389103044 _12_ MAC  --- 1 vectorbasedforward 300 [0 3000000 ffff0008 0] [energy 199992.144579 ei 5.383 es 0.000 et 0.000 er 2.472] ------- [60:300 1:0 0 0] 
r 29.612396002 _13_ MAC  --- 1 vectorbasedforward 300 [0 3000000 ffff0008 0] [energy 199992.099921 ei 5.428 es 0.000 et 0.000 er 2.472] ------- [60:300 1:0 0 0] 
r 29.639837105 _0_ MAC  --- 1 vectorbasedforward 300 [0 3000000 ffff0008 0] [energy 199992.094433 ei 5.434 es 0.000 et 0.000 er 2.472] ------- [60:300 1:0 0 0] 
r 29.639837105 _4_ MAC  --- 1 vectorbasedforward 300 [0 3000000 ffff0008 0] [energy 199992.094433 ei 5.434 es 0.000 et 0.000 er 2.472] ------- [60:300 1:0 0 0] 
r 29.639837105 _6_ MAC  --- 1 vectorbasedforward 300 [0 3000000 ffff0008 0] [energy 199992.094433 ei 5.434 es 0.000 et 0.000 er 2.472] ------- [60:300 1:0 0 0] 
M 15.10000 12 (1700.00, 6000.00, 0.00), (1700.00, 10.00), 2.50
M 15.10000 13 (4700.00, 6000.00, 0.00), (4700.00, 10.00), 2.50
r 30.192121855 _1_ MAC  --- 1 vectorbasedforward 300 [0 3000000 ffff0008 0] [energy 199991.983976 ei 5.544 es 0.000 et 0.000 er 2.472] ------- [60:300 1:0 0 0] 
r 30.192121855 _7_ MAC  --- 1 vectorbasedforward 300 [0 3000000 ffff0008 0] [energy 199991.983976 ei 5.544 es 0.000 et 0.000 er 2.472] ------- [60:300 1:0 0 0] 
M 15.10000 12 (1700.00, 6000.00, 0.00), (1700.00, 10.00), 2.50
M 15.10000 13 (4700.00, 6000.00, 0.00), (4700.00, 10.00), 2.50
M 15.10000 12 (1700.00, 6000.00, 0.00), (1700.00, 10.00), 2.50
M 15.10000 13 (4700.00, 6000.00, 0.00), (4700.00, 10.00), 2.50
M 15.10000 12 (1700.00, 6000.00, 0.00), (1700.00, 10.00), 2.50
M 15.10000 13 (4700.00, 6000.00, 0.00), (4700.00, 10.00), 2.50
s 33.409944472 _6_ MAC  --- 2 vectorbasedforward 309 [0 6000000 ffff0008 0] [energy 199991.422400 ei 6.106 es 0.000 et 0.000 er 2.472] ------- [60:309 2:0 0 0] 
M 15.10000 12 (1700.00, 6000.00, 0.00), (1700.00, 10.00), 2.50
M 15.10000 13 (4700.00, 6000.00, 0.00), (4700.00, 10.00), 2.50
M 15.10000 12 (1700.00, 6000.00, 0.00), (1700.00, 10.00), 2.50
M 15.10000 13 (4700.00, 6000.00, 0.00), (4700.00, 10.00), 2.50
M 15.10000 12 (1700.00, 6000.00, 0.00), (1700.00, 10.00), 2.50
M 15.10000 13 (4700.00, 6000.00, 0.00), (4700.00, 10.00), 2.50
r 36.548792986 _13_ MAC  --- 2 vectorbasedforward 300 [0 6000000 ffff0008 0] [energy 199988.735041 ei 6.321 es 0.000 et 0.000 er 4.944] ------- [60:300 2:0 0 0] 
M 15.10000 12 (1700.00, 6000.00, 0.00), (1700.00, 10.00), 2.50
M 15.10000 13 (4700.00, 6000.00, 0.00), (4700.00, 10.00), 2.50
r 37.215277806 _3_ MAC  --- 2 vectorbasedforward 300 [0 6000000 ffff0008 0] [energy 199916.913744 ei 6.454 es 0.000 et 74.160 er 2.472] ------- [60:300 2:0 0 0] 
r 37.215277806 _7_ MAC  --- 2 vectorbasedforward 300 [0 6000000 ffff0008 0] [energy 199988.601744 ei 6.454 es 0.000 et 0.000 er 4.944] ------- [60:300 2:0 0 0] 
r 37.215277806 _9_ MAC  --- 2 vectorbasedforward 300 [0 6000000 ffff0008 0] [energy 199990.579344 ei 6.949 es 0.000 et 0.000 er 2.472] ------- [60:300 2:0 0 0] 
r 37.767562556 _4_ MAC  --- 2 vectorbasedforward 300 [0 6000000 ffff0008 0] [energy 199988.491287 ei 6.565 es 0.000 et 0.000 er 4.944] ------- [60:300 2:0 0 0] 
r 37.767562556 _10_ MAC  --- 2 vectorbasedforward 300 [0 6000000 ffff0008 0] [energy 199990.468887 ei 7.059 es 0.000 et 0.000 er 2.472] ------- [60:300 2:0 0 0] 
M 15.10000 12 (1700.00, 6000.00, 0.00), (1700.00, 10.00), 2.50
M 15.10000 13 (4700.00, 6000.00, 0.00), (4700.00, 10.00), 2.50
s 38.442036254 _4_ MAC  --- 2 vectorbasedforward 309 [0 4000000 ffff0008 0] [energy 199988.444800 ei 6.611 es 0.000 et 0.000 er 4.944] ------- [60:309 2:0 0 0] 
M 15.10000 12 (1700.00, 6000.00, 0.00), (1700.00, 10.00), 2.50
M 15.10000 13 (4700.00, 6000.00, 0.00), (4700.00, 10.00), 2.50
s 39.000025000 _9_ MAC  --- 3 vectorbasedforward 309 [0 9000000 ffff0008 0] [energy 199990.222400 ei 7.306 es 0.000 et 0.000 er 2.472] ------- [60:309 3:0 0 0] 
M 15.10000 12 (1700.00, 6000.00, 0.00), (1700.00, 10.00), 2.50
M 15.10000 13 (4700.00, 6000.00, 0.00), (4700.00, 10.00), 2.50
M 15.10000 12 (1700.00, 6000.00, 0.00), (1700.00, 10.00), 2.50
M 15.10000 13 (4700.00, 6000.00, 0.00), (4700.00, 10.00), 2.50
M 15.10000 12 (1700.00, 6000.00, 0.00), (1700.00, 10.00), 2.50
M 15.10000 13 (4700.00, 6000.00, 0.00), (4700.00, 10.00), 2.50
r 42.247369588 _3_ MAC  --- 2 vectorbasedforward 300 [0 4000000 ffff0008 0] [energy 199913.929726 ei 6.966 es 0.000 et 74.160 er 4.944] ------- [60:300 2:0 0 0] 
r 42.247369588 _1_ MAC  --- 2 vectorbasedforward 300 [0 4000000 ffff0008 0] [energy 199987.595326 ei 7.461 es 0.000 et 0.000 er 4.944] ------- [60:300 2:0 0 0] 
r 42.247369588 _5_ MAC  --- 2 vectorbasedforward 300 [0 4000000 ffff0008 0] [energy 199989.572926 ei 7.955 es 0.000 et 0.000 er 2.472] ------- [60:300 2:0 0 0] 
r 42.799654337 _2_ MAC  --- 2 vectorbasedforward 300 [0 4000000 ffff0008 0] [energy 199989.462469 ei 8.066 es 0.000 et 0.000 er 2.472] ------- [60:300 2:0 0 0] 
r 42.799654337 _0_ MAC  --- 2 vectorbasedforward 300 [0 4000000 ffff0008 0] [energy 199987.484869 ei 7.571 es 0.000 et 0.000 er 4.944] ------- [60:300 2:0 0 0] 
r 42.799654337 _8_ MAC  --- 2 vectorbasedforward 300 [0 4000000 ffff0008 0] [energy 199989.462469 ei 8.066 es 0.000 et 0.000 er 2.472] ------- [60:300 2:0 0 0] 
r 42.805358333 _10_ MAC  --- 3 vectorbasedforward 300 [0 9000000 ffff0008 0] [energy 199987.483728 ei 7.572 es 0.000 et 0.000 er 4.944] ------- [60:300 3:0 0 0] 
M 15.10000 12 (1700.00, 6000.00, 0.00), (1700.00, 10.00), 2.50
M 15.10000 13 (4700.00, 6000.00, 0.00), (4700.00, 10.00), 2.50
r 43.128536722 _13_ MAC  --- 3 vectorbasedforward 300 [0 9000000 ffff0008 0] [energy 199985.441493 ei 7.143 es 0.000 et 0.000 er 7.416] ------- [60:300 3:0 0 0] 
M 15.10000 12 (1700.00, 6000.00, 0.00), (1700.00, 10.00), 2.50
M 15.10000 13 (4700.00, 6000.00, 0.00), (4700.00, 10.00), 2.50
M 15.10000 12 (1700.00, 6000.00, 0.00), (1700.00, 10.00), 2.50
M 15.10000 13 (4700.00, 6000.00, 0.00), (4700.00, 10.00), 2.50
M 15.10000 12 (1700.00, 6000.00, 0.00), (1700.00, 10.00), 2.50
M 15.10000 13 (4700.00, 6000.00, 0.00), (4700.00, 10.00), 2.50
M 15.10000 12 (1700.00, 6000.00, 0.00), (1700.00, 10.00), 2.50
M 15.10000 13 (4700.00, 6000.00, 0.00), (4700.00, 10.00), 2.50
M 15.10000 12 (1700.00, 6000.00, 0.00), (1700.00, 10.00), 2.50
M 15.10000 13 (4700.00, 6000.00, 0.00), (4700.00, 10.00), 2.50
M 15.10000 12 (1700.00, 6000.00, 0.00), (1700.00, 10.00), 2.50
M 15.10000 13 (4700.00, 6000.00, 0.00), (4700.00, 10.00), 2.50
M 15.10000 12 (1700.00, 6000.00, 0.00), (1700.00, 10.00), 2.50
M 15.10000 13 (4700.00, 6000.00, 0.00), (4700.00, 10.00), 2.50
s 50.469711154 _0_ MAC  --- 4 vectorbasedforward 309 [0 0 ffff0008 0] [energy 199986.044800 ei 9.011 es 0.000 et 0.000 er 4.944] ------- [60:309 4:0 0 0] 
M 15.10000 12 (1700.00, 6000.00, 0.00), (1700.00, 10.00), 2.50
M 15.10000 13 (4700.00, 6000.00, 0.00), (4700.00, 10.00), 2.50
M 15.10000 12 (1700.00, 6000.00, 0.00), (1700.00, 10.00), 2.50
M 15.10000 13 (4700.00, 6000.00, 0.00), (4700.00, 10.00), 2.50
M 15.10000 12 (1700.00, 6000.00, 0.00), (1700.00, 10.00), 2.50
M 15.10000 13 (4700.00, 6000.00, 0.00), (4700.00, 10.00), 2.50
r 53.707934300 _12_ MAC  --- 4 vectorbasedforward 300 [0 0 ffff0008 0] [energy 199985.303213 ei 9.753 es 0.000 et 0.000 er 4.944] ------- [60:300 4:0 0 0] 
M 15.10000 12 (1700.00, 6000.00, 0.00), (1700.00, 10.00), 2.50
M 15.10000 13 (4700.00, 6000.00, 0.00), (4700.00, 10.00), 2.50
r 54.275044487 _1_ MAC  --- 4 vectorbasedforward 300 [0 0 ffff0008 0] [energy 199983.212191 ei 9.372 es 0.000 et 0.000 er 7.416] ------- [60:300 4:0 0 0] 
r 54.275044487 _3_ MAC  --- 4 vectorbasedforward 300 [0 0 ffff0008 0] [energy 199909.546591 ei 8.877 es 0.000 et 74.160 er 7.416] ------- [60:300 4:0 0 0] 
r 54.827329237 _4_ MAC  --- 4 vectorbasedforward 300 [0 0 ffff0008 0] [energy 199909.436134 ei 8.988 es 0.000 et 74.160 er 7.416] ------- [60:300 4:0 0 0] 
M 15.10000 12 (1700.00, 6000.00, 0.00), (1700.00, 10.00), 2.50
M 15.10000 13 (4700.00, 6000.00, 0.00), (4700.00, 10.00), 2.50
M 15.10000 12 (1700.00, 6000.00, 0.00), (1700.00, 10.00), 2.50
M 15.10000 13 (4700.00, 6000.00, 0.00), (4700.00, 10.00), 2.50
M 15.10000 12 (1700.00, 6000.00, 0.00), (1700.00, 10.00), 2.50
M 15.10000 13 (4700.00, 6000.00, 0.00), (4700.00, 10.00), 2.50
M 15.10000 12 (1700.00, 6000.00, 0.00), (1700.00, 10.00), 2.50
M 15.10000 13 (4700.00, 6000.00, 0.00), (4700.00, 10.00), 2.50
s 58.108833398 _3_ MAC  --- 5 vectorbasedforward 309 [0 3000000 ffff0008 0] [energy 199908.801600 ei 9.622 es 0.000 et 74.160 er 7.416] ------- [60:309 5:0 0 0] 
M 15.10000 12 (1700.00, 6000.00, 0.00), (1700.00, 10.00), 2.50
M 15.10000 13 (4700.00, 6000.00, 0.00), (4700.00, 10.00), 2.50
M 15.10000 12 (1700.00, 6000.00, 0.00), (1700.00, 10.00), 2.50
M 15.10000 13 (4700.00, 6000.00, 0.00), (4700.00, 10.00), 2.50
M 15.10000 12 (1700.00, 6000.00, 0.00), (1700.00, 10.00), 2.50
M 15.10000 13 (4700.00, 6000.00, 0.00), (4700.00, 10.00), 2.50
r 61.632079607 _12_ MAC  --- 5 vectorbasedforward 300 [0 3000000 ffff0008 0] [energy 199981.740784 ei 10.843 es 0.000 et 0.000 er 7.416] ------- [60:300 5:0 0 0] 
r 61.860853681 _13_ MAC  --- 5 vectorbasedforward 300 [0 3000000 ffff0008 0] [energy 199979.717429 ei 10.395 es 0.000 et 0.000 er 9.888] ------- [60:300 5:0 0 0] 
r 61.914166731 _0_ MAC  --- 5 vectorbasedforward 300 [0 3000000 ffff0008 0] [energy 199908.018767 ei 10.405 es 0.000 et 74.160 er 7.416] ------- [60:300 5:0 0 0] 
r 61.914166731 _4_ MAC  --- 5 vectorbasedforward 300 [0 3000000 ffff0008 0] [energy 199906.041167 ei 9.911 es 0.000 et 74.160 er 9.888] ------- [60:300 5:0 0 0] 
r 61.914166731 _6_ MAC  --- 5 vectorbasedforward 300 [0 3000000 ffff0008 0] [energy 199908.014203 ei 10.404 es 0.000 et 74.160 er 7.422] ------- [60:300 5:0 0 0] 
M 15.10000 12 (1700.00, 6000.00, 0.00), (1700.00, 10.00), 2.50
M 15.10000 13 (4700.00, 6000.00, 0.00), (4700.00, 10.00), 2.50
r 62.466451481 _1_ MAC  --- 5 vectorbasedforward 300 [0 3000000 ffff0008 0] [energy 199979.596310 ei 10.516 es 0.000 et 0.000 er 9.888] ------- [60:300 5:0 0 0] 
r 62.466451481 _7_ MAC  --- 5 vectorbasedforward 300 [0 3000000 ffff0008 0] [energy 199978.708091 ei 10.294 es 0.000 et 0.000 er 10.998] ------- [60:300 5:0 0 0] 
M 15.10000 12 (1700.00, 6000.00, 0.00), (1700.00, 10.00), 2.50
M 15.10000 13 (4700.00, 6000.00, 0.00), (4700.00, 10.00), 2.50
M 15.10000 12 (1700.00, 6000.00, 0.00), (1700.00, 10.00), 2.50
M 15.10000 13 (4700.00, 6000.00, 0.00), (4700.00, 10.00), 2.50
M 15.10000 12 (1700.00, 6000.00, 0.00), (1700.00, 10.00), 2.50
M 15.10000 13 (4700.00, 6000.00, 0.00), (4700.00, 10.00), 2.50
M 15.10000 12 (1700.00, 6000.00, 0.00), (1700.00, 10.00), 2.50
M 15.10000 13 (4700.00, 6000.00, 0.00), (4700.00, 10.00), 2.50
M 15.10000 12 (1700.00, 6000.00, 0.00), (1700.00, 10.00), 2.50
M 15.10000 13 (4700.00, 6000.00, 0.00), (4700.00, 10.00), 2.50
M 15.10000 12 (1700.00, 6000.00, 0.00), (1700.00, 10.00), 2.50
M 15.10000 13 (4700.00, 6000.00, 0.00), (4700.00, 10.00), 2.50
M 15.10000 12 (1700.00, 6000.00, 0.00), (1700.00, 10.00), 2.50
M 15.10000 13 (4700.00, 6000.00, 0.00), (4700.00, 10.00), 2.50
M 15.10000 12 (1700.00, 6000.00, 0.00), (1700.00, 10.00), 2.50
M 15.10000 13 (4700.00, 6000.00, 0.00), (4700.00, 10.00), 2.50
M 15.10000 12 (1700.00, 6000.00, 0.00), (1700.00, 10.00), 2.50
M 15.10000 13 (4700.00, 6000.00, 0.00), (4700.00, 10.00), 2.50
s 71.635099680 _9_ MAC  --- 7 vectorbasedforward 309 [0 9000000 ffff0008 0] [energy 199910.156800 ei 13.211 es 0.000 et 74.160 er 2.472] ------- [60:309 7:0 0 0] 
M 15.10000 12 (1700.00, 6000.00, 0.00), (1700.00, 10.00), 2.50
M 15.10000 13 (4700.00, 6000.00, 0.00), (4700.00, 10.00), 2.50
M 15.10000 12 (1700.00, 6000.00, 0.00), (1700.00, 10.00), 2.50
M 15.10000 13 (4700.00, 6000.00, 0.00), (4700.00, 10.00), 2.50
M 15.10000 12 (1700.00, 6000.00, 0.00), (1700.00, 10.00), 2.50
M 15.10000 13 (4700.00, 6000.00, 0.00), (4700.00, 10.00), 2.50
M 15.10000 12 (1700.00, 6000.00, 0.00), (1700.00, 10.00), 2.50
M 15.10000 13 (4700.00, 6000.00, 0.00), (4700.00, 10.00), 2.50
r 75.440433014 _6_ MAC  --- 7 vectorbasedforward 300 [0 9000000 ffff0008 0] [energy 199903.331350 ei 12.615 es 0.000 et 74.160 er 9.894] ------- [60:300 7:0 0 0] 
r 75.440433014 _10_ MAC  --- 7 vectorbasedforward 300 [0 9000000 ffff0008 0] [energy 199978.979113 ei 13.605 es 0.000 et 0.000 er 7.416] ------- [60:300 7:0 0 0] 
r 75.743803802 _13_ MAC  --- 7 vectorbasedforward 300 [0 9000000 ffff0008 0] [energy 199974.963239 ei 12.677 es 0.000 et 0.000 er 12.360] ------- [60:300 7:0 0 0] 
r 75.992717764 _7_ MAC  --- 7 vectorbasedforward 300 [0 9000000 ffff0008 0] [energy 199974.025238 ei 12.504 es 0.000 et 0.000 er 13.470] ------- [60:300 7:0 0 0] 
M 15.10000 12 (1700.00, 6000.00, 0.00), (1700.00, 10.00), 2.50
M 15.10000 13 (4700.00, 6000.00, 0.00), (4700.00, 10.00), 2.50
M 15.10000 12 (1700.00, 6000.00, 0.00), (1700.00, 10.00), 2.50
M 15.10000 13 (4700.00, 6000.00, 0.00), (4700.00, 10.00), 2.50
M 15.10000 12 (1700.00, 6000.00, 0.00), (1700.00, 10.00), 2.50
M 15.10000 13 (4700.00, 6000.00, 0.00), (4700.00, 10.00), 2.50
M 15.10000 12 (1700.00, 6000.00, 0.00), (1700.00, 10.00), 2.50
M 15.10000 13 (4700.00, 6000.00, 0.00), (4700.00, 10.00), 2.50
M 15.10000 12 (1700.00, 6000.00, 0.00), (1700.00, 10.00), 2.50
M 15.10000 13 (4700.00, 6000.00, 0.00), (4700.00, 10.00), 2.50
M 15.10000 12 (1700.00, 6000.00, 0.00), (1700.00, 10.00), 2.50
M 15.10000 13 (4700.00, 6000.00, 0.00), (4700.00, 10.00), 2.50
s 81.607362415 _0_ MAC  --- 8 vectorbasedforward 309 [0 0 ffff0008 0] [energy 199904.201600 ei 14.222 es 0.000 et 74.160 er 7.416] ------- [60:309 8:0 0 0] 
M 15.10000 12 (1700.00, 6000.00, 0.00), (1700.00, 10.00), 2.50
M 15.10000 13 (4700.00, 6000.00, 0.00), (4700.00, 10.00), 2.50
M 15.10000 12 (1700.00, 6000.00, 0.00), (1700.00, 10.00), 2.50
M 15.10000 13 (4700.00, 6000.00, 0.00), (4700.00, 10.00), 2.50
M 15.10000 12 (1700.00, 6000.00, 0.00), (1700.00, 10.00), 2.50
M 15.10000 13 (4700.00, 6000.00, 0.00), (4700.00, 10.00), 2.50
r 84.805113634 _12_ MAC  --- 8 vectorbasedforward 300 [0 0 ffff0008 0] [energy 199975.128577 ei 14.983 es 0.000 et 0.000 er 9.888] ------- [60:300 8:0 0 0] 
M 15.10000 12 (1700.00, 6000.00, 0.00), (1700.00, 10.00), 2.50
M 15.10000 13 (4700.00, 6000.00, 0.00), (4700.00, 10.00), 2.50
r 85.412695748 _1_ MAC  --- 8 vectorbasedforward 300 [0 0 ffff0008 0] [energy 199973.029461 ei 14.611 es 0.000 et 0.000 er 12.360] ------- [60:300 8:0 0 0] 
r 85.412695748 _3_ MAC  --- 8 vectorbasedforward 300 [0 0 ffff0008 0] [energy 199827.675861 ei 14.116 es 0.000 et 148.320 er 9.888] ------- [60:300 8:0 0 0] 
r 85.964980498 _4_ MAC  --- 8 vectorbasedforward 300 [0 0 ffff0008 0] [energy 199899.253404 ei 14.227 es 0.000 et 74.160 er 12.360] ------- [60:300 8:0 0 0] 
M 15.10000 12 (1700.00, 6000.00, 0.00), (1700.00, 10.00), 2.50
M 15.10000 13 (4700.00, 6000.00, 0.00), (4700.00, 10.00), 2.50
M 15.10000 12 (1700.00, 6000.00, 0.00), (1700.00, 10.00), 2.50
M 15.10000 13 (4700.00, 6000.00, 0.00), (4700.00, 10.00), 2.50
s 87.701736794 _3_ MAC  --- 9 vectorbasedforward 309 [0 3000000 ffff0008 0] [energy 199827.358400 ei 14.434 es 0.000 et 148.320 er 9.888] ------- [60:309 9:0 0 0] 
M 15.10000 12 (1700.00, 6000.00, 0.00), (1700.00, 10.00), 2.50
M 15.10000 13 (4700.00, 6000.00, 0.00), (4700.00, 10.00), 2.50
M 15.10000 12 (1700.00, 6000.00, 0.00), (1700.00, 10.00), 2.50
M 15.10000 13 (4700.00, 6000.00, 0.00), (4700.00, 10.00), 2.50
M 15.10000 12 (1700.00, 6000.00, 0.00), (1700.00, 10.00), 2.50
M 15.10000 13 (4700.00, 6000.00, 0.00), (4700.00, 10.00), 2.50
M 15.10000 12 (1700.00, 6000.00, 0.00), (1700.00, 10.00), 2.50
M 15.10000 13 (4700.00, 6000.00, 0.00), (4700.00, 10.00), 2.50
r 91.197875487 _12_ MAC  --- 9 vectorbasedforward 300 [0 3000000 ffff0008 0] [energy 199971.872425 ei 15.768 es 0.000 et 0.000 er 12.360] ------- [60:300 9:0 0 0] 
r 91.431589486 _13_ MAC  --- 9 vectorbasedforward 300 [0 3000000 ffff0008 0] [energy 199969.848082 ei 15.320 es 0.000 et 0.000 er 14.832] ------- [60:300 9:0 0 0] 
r 91.507070127 _0_ MAC  --- 9 vectorbasedforward 300 [0 3000000 ffff0008 0] [energy 199826.456986 ei 15.335 es 0.000 et 148.320 er 9.888] ------- [60:300 9:0 0 0] 
r 91.507070127 _4_ MAC  --- 9 vectorbasedforward 300 [0 3000000 ffff0008 0] [energy 199896.167386 ei 14.841 es 0.000 et 74.160 er 14.832] ------- [60:300 9:0 0 0] 
r 91.507070127 _6_ MAC  --- 9 vectorbasedforward 300 [0 3000000 ffff0008 0] [energy 199898.140423 ei 15.334 es 0.000 et 74.160 er 12.366] ------- [60:300 9:0 0 0] 
M 15.10000 12 (1700.00, 6000.00, 0.00), (1700.00, 10.00), 2.50
M 15.10000 13 (4700.00, 6000.00, 0.00), (4700.00, 10.00), 2.50
r 92.059354877 _1_ MAC  --- 9 vectorbasedforward 300 [0 3000000 ffff0008 0] [energy 199969.722529 ei 15.445 es 0.000 et 0.000 er 14.832] ------- [60:300 9:0 0 0] 
r 92.059354877 _7_ MAC  --- 9 vectorbasedforward 300 [0 3000000 ffff0008 0] [energy 199968.834310 ei 15.223 es 0.000 et 0.000 er 15.942] ------- [60:300 9:0 0 0] 
M 15.10000 12 (1700.00, 6000.00, 0.00), (1700.00, 10.00), 2.50
M 15.10000 13 (4700.00, 6000.00, 0.00), (4700.00, 10.00), 2.50
M 15.10000 12 (1700.00, 6000.00, 0.00), (1700.00, 10.00), 2.50
M 15.10000 13 (4700.00, 6000.00, 0.00), (4700.00, 10.00), 2.50
M 15.10000 12 (1700.00, 6000.00, 0.00), (1700.00, 10.00), 2.50
M 15.10000 13 (4700.00, 6000.00, 0.00), (4700.00, 10.00), 2.50
s 95.033931526 _6_ MAC  --- 10 vectorbasedforward 309 [0 6000000 ffff0008 0] [energy 199897.441837 ei 16.032 es 0.000 et 74.160 er 12.366] ------- [60:309 10:0 0 0] 
M 15.10000 12 (1700.00, 6000.00, 0.00), (1700.00, 10.00), 2.50
M 15.10000 13 (4700.00, 6000.00, 0.00), (4700.00, 10.00), 2.50
M 15.10000 12 (1700.00, 6000.00, 0.00), (1700.00, 10.00), 2.50
M 15.10000 13 (4700.00, 6000.00, 0.00), (4700.00, 10.00), 2.50
M 15.10000 12 (1700.00, 6000.00, 0.00), (1700.00, 10.00), 2.50
M 15.10000 13 (4700.00, 6000.00, 0.00), (4700.00, 10.00), 2.50
r 98.075634880 _13_ MAC  --- 10 vectorbasedforward 300 [0 6000000 ffff0008 0] [energy 199966.541673 ei 16.154 es 0.000 et 0.000 er 17.304] ------- [60:300 10:0 0 0] 
r 98.839264860 _3_ MAC  --- 10 vectorbasedforward 300 [0 6000000 ffff0008 0] [energy 199749.347347 ei 15.813 es 0.000 et 222.480 er 12.360] ------- [60:300 10:0 0 0] 
r 98.839264860 _7_ MAC  --- 10 vectorbasedforward 300 [0 6000000 ffff0008 0] [energy 199965.500728 ei 16.085 es 0.000 et 0.000 er 18.414] ------- [60:300 10:0 0 0] 
r 98.839264860 _9_ MAC  --- 10 vectorbasedforward 300 [0 6000000 ffff0008 0] [energy 199828.945747 ei 17.790 es 0.000 et 148.320 er 4.944] ------- [60:300 10:0 0 0] 
M 15.10000 12 (1700.00, 6000.00, 0.00), (1700.00, 10.00), 2.50
M 15.10000 13 (4700.00, 6000.00, 0.00), (4700.00, 10.00), 2.50
r 99.391549609 _4_ MAC  --- 10 vectorbasedforward 300 [0 6000000 ffff0008 0] [energy 199892.612890 ei 15.923 es 0.000 et 74.160 er 17.304] ------- [60:300 10:0 0 0] 
r 99.391549609 _10_ MAC  --- 10 vectorbasedforward 300 [0 6000000 ffff0008 0] [energy 199972.211290 ei 17.901 es 0.000 et 0.000 er 9.888] ------- [60:300 10:0 0 0] 
M 15.10000 12 (1700.00, 6000.00, 0.00), (1700.00, 10.00), 2.50
M 15.10000 13 (4700.00, 6000.00, 0.00), (4700.00, 10.00), 2.50
M 15.10000 12 (1700.00, 6000.00, 0.00), (1700.00, 10.00), 2.50
M 15.10000 13 (4700.00, 6000.00, 0.00), (4700.00, 10.00), 2.50
s 101.500025000 _9_ MAC  --- 11 vectorbasedforward 309 [0 9000000 ffff0008 0] [energy 199828.513600 ei 18.222 es 0.000 et 148.320 er 4.944] ------- [60:309 11:0 0 0] 
M 15.10000 12 (1700.00, 6000.00, 0.00), (1700.00, 10.00), 2.50
M 15.10000 13 (4700.00, 6000.00, 0.00), (4700.00, 10.00), 2.50
s 102.313805114 _4_ MAC  --- 10 vectorbasedforward 309 [0 4000000 ffff0008 0] [energy 199892.091200 ei 16.445 es 0.000 et 74.160 er 17.304] ------- [60:309 10:0 0 0] 
M 15.10000 12 (1700.00, 6000.00, 0.00), (1700.00, 10.00), 2.50
M 15.10000 13 (4700.00, 6000.00, 0.00), (4700.00, 10.00), 2.50
M 15.10000 12 (1700.00, 6000.00, 0.00), (1700.00, 10.00), 2.50
M 15.10000 13 (4700.00, 6000.00, 0.00), (4700.00, 10.00), 2.50
M 15.10000 12 (1700.00, 6000.00, 0.00), (1700.00, 10.00), 2.50
M 15.10000 13 (4700.00, 6000.00, 0.00), (4700.00, 10.00), 2.50
r 105.305358333 _10_ MAC  --- 11 vectorbasedforward 300 [0 9000000 ffff0008 0] [energy 199969.050928 ei 18.589 es 0.000 et 0.000 er 12.360] ------- [60:300 11:0 0 0] 
r 105.591991516 _13_ MAC  --- 11 vectorbasedforward 300 [0 9000000 ffff0008 0] [energy 199963.060802 ei 17.163 es 0.000 et 0.000 er 19.776] ------- [60:300 11:0 0 0] 
M 15.10000 12 (1700.00, 6000.00, 0.00), (1700.00, 10.00), 2.50
M 15.10000 13 (4700.00, 6000.00, 0.00), (4700.00, 10.00), 2.50
r 106.119138447 _3_ MAC  --- 10 vectorbasedforward 300 [0 4000000 ffff0008 0] [energy 199745.913772 ei 16.774 es 0.000 et 222.480 er 14.832] ------- [60:300 10:0 0 0] 
r 106.119138447 _1_ MAC  --- 10 vectorbasedforward 300 [0 4000000 ffff0008 0] [energy 199964.932972 ei 17.763 es 0.000 et 0.000 er 17.304] ------- [60:300 10:0 0 0] 
r 106.119138447 _5_ MAC  --- 10 vectorbasedforward 300 [0 4000000 ffff0008 0] [energy 199974.820972 ei 20.235 es 0.000 et 0.000 er 4.944] ------- [60:300 10:0 0 0] 
r 106.671423197 _2_ MAC  --- 10 vectorbasedforward 300 [0 4000000 ffff0008 0] [energy 199974.710515 ei 20.345 es 0.000 et 0.000 er 4.944] ------- [60:300 10:0 0 0] 
r 106.671423197 _0_ MAC  --- 10 vectorbasedforward 300 [0 4000000 ffff0008 0] [energy 199821.446515 ei 17.873 es 0.000 et 148.320 er 12.360] ------- [60:300 10:0 0 0] 
r 106.671423197 _8_ MAC  --- 10 vectorbasedforward 300 [0 4000000 ffff0008 0] [energy 199974.710515 ei 20.345 es 0.000 et 0.000 er 4.944] ------- [60:300 10:0 0 0] 
M 15.10000 12 (1700.00, 6000.00, 0.00), (1700.00, 10.00), 2.50
M 15.10000 13 (4700.00, 6000.00, 0.00), (4700.00, 10.00), 2.50
s 107.483362093 _2_ MAC  --- 10 vectorbasedforward 309 [0 2000000 ffff0008 0] [energy 199974.644800 ei 20.411 es 0.000 et 0.000 er 4.944] ------- [60:309 10:0 0 0] 
M 15.10000 12 (1700.00, 6000.00, 0.00), (1700.00, 10.00), 2.50
M 15.10000 13 (4700.00, 6000.00, 0.00), (4700.00, 10.00), 2.50
M 15.10000 12 (1700.00, 6000.00, 0.00), (1700.00, 10.00), 2.50
M 15.10000 13 (4700.00, 6000.00, 0.00), (4700.00, 10.00), 2.50
M 15.10000 12 (1700.00, 6000.00, 0.00), (1700.00, 10.00), 2.50
M 15.10000 13 (4700.00, 6000.00, 0.00), (4700.00, 10.00), 2.50
M 15.10000 12 (1700.00, 6000.00, 0.00), (1700.00, 10.00), 2.50
M 15.10000 13 (4700.00, 6000.00, 0.00), (4700.00, 10.00), 2.50
r 111.288695427 _1_ MAC  --- 10 vectorbasedforward 300 [0 2000000 ffff0008 0] [energy 199961.921461 ei 18.303 es 0.000 et 0.000 er 19.776] ------- [60:300 10:0 0 0] 
r 111.288695427 _5_ MAC  --- 10 vectorbasedforward 300 [0 2000000 ffff0008 0] [energy 199971.809461 ei 20.775 es 0.000 et 0.000 er 7.416] ------- [60:300 10:0 0 0] 
r 111.840980176 _4_ MAC  --- 10 vectorbasedforward 300 [0 2000000 ffff0008 0] [energy 199814.479804 ei 17.424 es 0.000 et 148.320 er 19.776] ------- [60:300 10:0 0 0] 
M 15.10000 12 (1700.00, 6000.00, 0.00), (1700.00, 10.00), 2.50
M 15.10000 13 (4700.00, 6000.00, 0.00), (4700.00, 10.00), 2.50
M 15.10000 12 (1700.00, 6000.00, 0.00), (1700.00, 10.00), 2.50
M 15.10000 13 (4700.00, 6000.00, 0.00), (4700.00, 10.00), 2.50
M 15.10000 12 (1700.00, 6000.00, 0.00), (1700.00, 10.00), 2.50
M 15.10000 13 (4700.00, 6000.00, 0.00), (4700.00, 10.00), 2.50
s 114.012649389 _0_ MAC  --- 12 vectorbasedforward 309 [0 0 ffff0008 0] [energy 199819.980800 ei 19.339 es 0.000 et 148.320 er 12.360] ------- [60:309 12:0 0 0] 
M 15.10000 12 (1700.00, 6000.00, 0.00), (1700.00, 10.00), 2.50
M 15.10000 13 (4700.00, 6000.00, 0.00), (4700.00, 10.00), 2.50
M 15.10000 12 (1700.00, 6000.00, 0.00), (1700.00, 10.00), 2.50
M 15.10000 13 (4700.00, 6000.00, 0.00), (4700.00, 10.00), 2.50
M 15.10000 12 (1700.00, 6000.00, 0.00), (1700.00, 10.00), 2.50
M 15.10000 13 (4700.00, 6000.00, 0.00), (4700.00, 10.00), 2.50
r 117.169918178 _12_ MAC  --- 12 vectorbasedforward 300 [0 0 ffff0008 0] [energy 199964.700416 ei 20.468 es 0.000 et 0.000 er 14.832] ------- [60:300 12:0 0 0] 
r 117.817982723 _1_ MAC  --- 12 vectorbasedforward 300 [0 0 ffff0008 0] [energy 199958.638003 ei 19.114 es 0.000 et 0.000 er 22.248] ------- [60:300 12:0 0 0] 
r 117.817982723 _3_ MAC  --- 12 vectorbasedforward 300 [0 0 ffff0008 0] [energy 199741.596403 ei 18.620 es 0.000 et 222.480 er 17.304] ------- [60:300 12:0 0 0] 
M 15.10000 12 (1700.00, 6000.00, 0.00), (1700.00, 10.00), 2.50
M 15.10000 13 (4700.00, 6000.00, 0.00), (4700.00, 10.00), 2.50
r 118.370267473 _4_ MAC  --- 12 vectorbasedforward 300 [0 0 ffff0008 0] [energy 199811.196347 ei 18.236 es 0.000 et 148.320 er 22.248] ------- [60:300 12:0 0 0] 
M 15.10000 12 (1700.00, 6000.00, 0.00), (1700.00, 10.00), 2.50
M 15.10000 13 (4700.00, 6000.00, 0.00), (4700.00, 10.00), 2.50
M 15.10000 12 (1700.00, 6000.00, 0.00), (1700.00, 10.00), 2.50
M 15.10000 13 (4700.00, 6000.00, 0.00), (4700.00, 10.00), 2.50
M 15.10000 12 (1700.00, 6000.00, 0.00), (1700.00, 10.00), 2.50
M 15.10000 13 (4700.00, 6000.00, 0.00), (4700.00, 10.00), 2.50
M 15.10000 12 (1700.00, 6000.00, 0.00), (1700.00, 10.00), 2.50
M 15.10000 13 (4700.00, 6000.00, 0.00), (4700.00, 10.00), 2.50
M 15.10000 12 (1700.00, 6000.00, 0.00), (1700.00, 10.00), 2.50
M 15.10000 13 (4700.00, 6000.00, 0.00), (4700.00, 10.00), 2.50
s 123.660250059 _3_ MAC  --- 13 vectorbasedforward 309 [0 3000000 ffff0008 0] [energy 199740.560000 ei 19.656 es 0.000 et 222.480 er 17.304] ------- [60:309 13:0 0 0] 
M 15.10000 12 (1700.00, 6000.00, 0.00), (1700.00, 10.00), 2.50
M 15.10000 13 (4700.00, 6000.00, 0.00), (4700.00, 10.00), 2.50
M 15.10000 12 (1700.00, 6000.00, 0.00), (1700.00, 10.00), 2.50
M 15.10000 13 (4700.00, 6000.00, 0.00), (4700.00, 10.00), 2.50
M 15.10000 12 (1700.00, 6000.00, 0.00), (1700.00, 10.00), 2.50
M 15.10000 13 (4700.00, 6000.00, 0.00), (4700.00, 10.00), 2.50
M 15.10000 12 (1700.00, 6000.00, 0.00), (1700.00, 10.00), 2.50
M 15.10000 13 (4700.00, 6000.00, 0.00), (4700.00, 10.00), 2.50
r 127.125752741 _12_ MAC  --- 13 vectorbasedforward 300 [0 3000000 ffff0008 0] [energy 199960.731649 ei 21.964 es 0.000 et 0.000 er 17.304] ------- [60:300 13:0 0 0] 
r 127.365287330 _13_ MAC  --- 13 vectorbasedforward 300 [0 3000000 ffff0008 0] [energy 199956.728543 ei 21.023 es 0.000 et 0.000 er 22.248] ------- [60:300 13:0 0 0] 
r 127.465583393 _0_ MAC  --- 13 vectorbasedforward 300 [0 3000000 ffff0008 0] [energy 199741.644483 ei 21.044 es 0.000 et 222.480 er 14.832] ------- [60:300 13:0 0 0] 
r 127.465583393 _4_ MAC  --- 13 vectorbasedforward 300 [0 3000000 ffff0008 0] [energy 199807.399683 ei 19.560 es 0.000 et 148.320 er 24.720] ------- [60:300 13:0 0 0] 
r 127.465583393 _6_ MAC  --- 13 vectorbasedforward 300 [0 3000000 ffff0008 0] [energy 199812.235068 ei 20.769 es 0.000 et 148.320 er 18.676] ------- [60:300 13:0 0 0] 
M 15.10000 12 (1700.00, 6000.00, 0.00), (1700.00, 10.00), 2.50
M 15.10000 13 (4700.00, 6000.00, 0.00), (4700.00, 10.00), 2.50
r 128.017868143 _1_ MAC  --- 13 vectorbasedforward 300 [0 3000000 ffff0008 0] [energy 199954.620426 ei 20.660 es 0.000 et 0.000 er 24.720] ------- [60:300 13:0 0 0] 
r 128.017868143 _7_ MAC  --- 13 vectorbasedforward 300 [0 3000000 ffff0008 0] [energy 199955.500611 ei 20.880 es 0.000 et 0.000 er 23.620] ------- [60:300 13:0 0 0] 
s 128.356026186 _6_ MAC  --- 14 vectorbasedforward 309 [0 6000000 ffff0008 0] [energy 199812.128185 ei 20.876 es 0.000 et 148.320 er 18.676] ------- [60:309 14:0 0 0] 
M 15.10000 12 (1700.00, 6000.00, 0.00), (1700.00, 10.00), 2.50
M 15.10000 13 (4700.00, 6000.00, 0.00), (4700.00, 10.00), 2.50
M 15.10000 12 (1700.00, 6000.00, 0.00), (1700.00, 10.00), 2.50
M 15.10000 13 (4700.00, 6000.00, 0.00), (4700.00, 10.00), 2.50
M 15.10000 12 (1700.00, 6000.00, 0.00), (1700.00, 10.00), 2.50
M 15.10000 13 (4700.00, 6000.00, 0.00), (4700.00, 10.00), 2.50
r 131.346094464 _13_ MAC  --- 14 vectorbasedforward 300 [0 6000000 ffff0008 0] [energy 199953.954781 ei 21.325 es 0.000 et 0.000 er 24.720] ------- [60:300 14:0 0 0] 
M 15.10000 12 (1700.00, 6000.00, 0.00), (1700.00, 10.00), 2.50
M 15.10000 13 (4700.00, 6000.00, 0.00), (4700.00, 10.00), 2.50